     391
 i =    51950, time =    25975.000, E =     -4226.2684987017
  O         2.0372006015        7.7301509359       18.2326666024
  H         2.8404031703        7.8183056281       17.6733960953
  H         2.4334601507        7.7814715714       19.1355044748
  O         9.9991656314        4.5345792848       27.6956303718
  H        10.3071680926        4.4160854937       26.7561368452
  H        10.7617601551        4.1295901823       28.1227610250
  O         7.6866842341       -8.8742521239       11.8484820751
  H         7.3302643315       -9.8388190406       11.7596921399
  H         7.6885440942       -8.3586952861       11.0029232849
  O        14.1008277128        6.2294597274        7.7561403164
  H        14.3058850230        7.1835385824        7.7944020352
  H        13.1137386276        6.1660148075        7.6749917496
  O        -0.7468469862        5.0538805926       11.0738029245
  H         0.0867582421        4.5119254098       11.1044744119
  H        -1.0399658429        5.1047837859       12.0399825451
  O         1.5814884323       13.1459756913       21.6780105509
  H         1.5155911279       12.2248833291       21.9183997236
  H         1.4153586286       13.1432274813       20.7324302274
  O         6.5430370699        4.3783560176       14.9405758862
  H         7.4169077008        4.0232793293       15.1668995758
  H         5.8780463241        3.6439805643       14.9895971887
  O         4.6053759126       12.3814644703       11.0552539031
  H         4.6508997043       13.3634401223       11.1464097843
  H         3.6819331876       12.0226752049       11.0184998643
  O        12.4122176727        1.9406958413       19.0913254384
  H        12.9910234219        1.2391631337       18.7287094242
  H        12.5428521491        2.7199369532       18.4692786857
  O        12.3844524587        1.8610963219       25.1485109739
  H        11.4443830134        2.0583384891       25.3484127820
  H        12.7821572639        2.6821390861       24.8262491405
  O         4.6427929995       11.7596826899        8.3999922147
  H         4.8378974092       12.0459490294        9.3253675692
  H         3.7097598118       11.7336813285        8.1852986491
  O        -0.2650955321        1.4883045763       14.7469371638
  H         0.3613253644        2.0733428838       15.2141307386
  H        -0.0860135741        0.6072580022       15.1662554752
  O         7.9296186498       -3.2389820326       19.7321747369
  H         6.9863908799       -3.4925298353       19.8189996606
  H         8.4493787639       -3.9453012271       20.2726563244
  O         3.3598029956       -5.0570407753       24.2726033284
  H         3.1854227454       -4.0772724840       24.2658068616
  H         2.8867411158       -5.3398197639       23.4309928180
  O         5.5442349594       -0.0901364449       14.2099837822
  H         6.2267306933        0.4052196800       14.6717887001
  H         6.0303460058       -0.3396826280       13.3608380136
  O         1.6632601962      -10.3032135942        8.0771418893
  H         1.9321468077       -9.3754274250        8.2816343306
  H         1.4352660619      -10.3424344860        7.0954008008
  O         1.4519710991        3.5082224160       28.5411898917
  H         2.0846634000        3.9525783302       27.9397587888
  H         1.7508752050        2.6037717288       28.6668867084
  O        15.2893000178        3.3428798500       21.5518664475
  H        15.6448135035        3.1599549808       20.6397035157
  H        14.4356597976        2.8322776850       21.5664684470
  O         8.6999522716        3.2206811048       14.6035332604
  H         8.4533025210        2.9649532014       13.6832069994
  H         9.5488580445        2.7449221648       14.8366379692
  O         6.4247384647        6.4542879508       24.3948903752
  H         5.4590572668        6.4888302652       24.3423170573
  H         6.6699381343        5.4921946113       24.6719033956
  O         3.5878741640        3.7431533077        8.2305194317
  H         3.4132279850        4.7524784950        8.1724157298
  H         3.5039210413        3.6215301012        7.2386397725
  O         3.3792437884        7.6024819154       20.6364475034
  H         4.1099528068        7.1930543261       20.1646353942
  H         3.5405137104        8.5602536461       20.6227899386
  O        14.2860608471        9.4027044557       14.3637731807
  H        14.8614956526       10.1634587344       14.0399355876
  H        13.4507819474        9.8010244416       14.7258510950
  O         1.4543686362        3.5813129726       16.8781371327
  H         2.3923694116        3.9286606348       17.0962739090
  H         1.3346887288        3.7653089627       15.9038634280
  O         6.5645778561       -1.2710675798        7.9600715770
  H         5.8676319772       -0.5873845035        8.0991256254
  H         6.3034137764       -1.6379497481        7.0327843517
  O        10.0821791270        7.0623006247       28.5380953734
  H         9.9357926771        6.0980328375       28.3159635781
  H        10.9718359652        7.2262082842       28.1616913679
  O         7.1453121031        4.2105602203       21.2119968133
  H         7.1552765722        4.3732044978       22.1421435241
  H         8.0553677963        4.5148985641       21.0048223226
  O         0.2561546172        5.6513855732        7.5589787587
  H        -0.0038950911        4.7505138344        7.8823261118
  H        -0.4930506897        6.1942052118        7.9485673496
  O        -8.4693995278        4.3211345937       26.3221179825
  H        -8.5467368189        5.1957353678       25.8586872099
  H        -7.8914900261        3.8270919773       25.7355795444
  O         6.9986070706        3.7943279332       25.1018916461
  H         6.8904908774        4.1423435238       26.0404996776
  H         7.9459599206        3.4462164925       25.0796305482
  O        16.4943859557        2.7091910643       18.9802618349
  H        16.0650360673        1.9172731660       18.5265516773
  H        17.4219246240        2.8242924890       18.6342480711
  O         6.8268974147       -0.2013750328       11.8187329894
  H         7.1586062337       -0.8598926881       11.0968146126
  H         5.9680482140        0.0600935058       11.4021615577
  O        15.7019639233       -8.2161686518       24.3204910902
  H        16.6847608406       -8.1998357324       24.3457373146
  H        15.5017151191       -8.3098383365       23.4110493103
  O         4.1697052679       -1.0465523657       28.4478001592
  H         4.9440258434       -0.4940197489       28.2753104717
  H         4.4222130896       -1.8055282430       27.8343975761
  O        -2.6833468361       -0.7031790898       20.8468487084
  H        -3.4458068521       -0.2494535201       21.2631242037
  H        -3.0471786575       -1.6012521208       20.4794668183
  O         2.0821543829       -2.7440407418       11.1723889083
  H         1.1527778655       -2.9972463375       10.9720710078
  H         2.1630169200       -3.0220433479       12.0686625263
  O         8.6449541697       11.5238070122        7.4242088832
  H         7.8748711851       10.9236731029        7.6661720031
  H         8.3411058478       12.5323354742        7.4794490002
  O        -4.3347665826        0.2885665523       27.5620425518
  H        -3.4888014733       -0.0106899613       27.1463739121
  H        -4.0113832265        0.5429675968       28.4705988913
  O        10.7096463266       -5.5894144754       25.2797028496
  H        10.7531454242       -5.8151914482       24.3128734948
  H        10.0081502220       -4.8897313777       25.3094103865
  O        18.0180175568        6.7469788325        8.3155232791
  H        18.9209700212        7.0282450800        8.4261945388
  H        17.8211095657        6.8654481004        7.3890468531
  O         7.8060186892        2.8866889721       18.2481702234
  H         8.0557195322        3.7660433914       17.9696051212
  H         8.4582851101        2.5259298287       18.9047131122
  O        -1.5817949422        1.6717974090       19.9977995560
  H        -0.7389625846        1.4403439241       19.4610685767
  H        -2.0648667050        0.8440743069       20.1036751179
  O        11.0649847460      -13.3740595059       20.7476877317
  H        10.3012739479      -12.6803335212       20.9237177465
  H        11.8928110599      -13.0371894908       21.1735888673
  O         2.8684647596        0.2062695385       25.9361922535
  H         2.1291478046       -0.0433090171       26.5670639899
  H         2.4605724574        0.9143919553       25.3776518536
  O         3.3566916904       -2.4607879905        8.2693512338
  H         2.4248631764       -2.1215833340        8.4305182829
  H         3.8343714973       -1.6227393158        8.0789219756
  O         6.1071615056        3.9880480865        8.8804856422
  H         5.2224499639        3.9138824704        8.3434435277
  H         6.3531600902        4.9393629164        8.6184041641
  O         8.0858669501       -1.9456087973       10.0880959492
  H         8.8748193955       -1.3389641253       10.1130500933
  H         7.6412280969       -2.0200890055        9.1808626851
  O         5.3067896579       -0.4235276031       23.9698454221
  H         4.7528572830       -0.1410489352       24.6724043903
  H         5.5299658278       -1.3532664389       24.1701126733
  O         2.2251428564        5.4340138717       21.9706359274
  H         2.9632710662        4.7701507893       21.6124092802
  H         2.5516340758        6.2310576569       21.5106606635
  O         6.1333963739        0.7085094773       21.6564697367
  H         5.5719245010        1.5308453363       21.5116444226
  H         6.1045471054        0.4951503863       22.6244264879
  O         3.4316042333       12.1855006935       17.9525473667
  H         3.8350620061       11.2470850732       17.7887498962
  H         3.2445190876       12.5802648972       17.0451119900
  O        12.0069950685       10.3758656144       27.5169172952
  H        12.0129976991       10.3978240147       28.5543056069
  H        12.0371010539        9.3718906264       27.3887025627
  O         7.9373214622       -3.4629204206       12.8656715966
  H         7.0730276325       -3.7235198493       13.2829030263
  H         7.7279066589       -3.2711676766       11.9614387611
  O         4.3892604568       13.7870427732       14.6809691126
  H         4.6305651225       12.8655931021       14.3722577315
  H         3.4638125099       13.9768174882       14.4145942648
  O         3.4139175440        6.6255860518       27.8021215591
  H         3.5574621634        6.7526659787       28.8109139657
  H         3.2944677245        5.6759880327       27.6299146998
  O         4.5201235095        3.9994042223       28.6738946071
  H         5.4236075561        4.4382838303       28.4879240608
  H         4.7044969287        3.0613293608       28.3073199375
  O        11.9948687036       -2.1614874272        8.4121930887
  H        11.5296862953       -1.4042786257        8.8071628254
  H        11.8161209897       -2.0032975508        7.4576654286
  O         7.5220769904        9.0733169835       24.8853484432
  H         7.2962976840        8.2253650688       24.4454542683
  H         7.5865530746        8.6803681351       25.7907679934
  O        10.2828518889        2.3143103233       22.5910387905
  H         9.7506582861        2.2164466624       21.7821702657
  H        11.2137338175        2.0916921620       22.4277724322
  O        12.9389786629       11.1442971534       11.2521878757
  H        12.6011593950       11.4646019076       10.4131736341
  H        13.2220159390       10.1630367081       11.1225551713
  O         9.4521456097       -5.3643596267       20.4410091820
  H        10.1445300069       -5.4929077502       19.7476472673
  H         9.8568119727       -5.4064031040       21.3519571682
  O        10.2377449418       -1.9669205760       24.0671647659
  H         9.2997396364       -1.7648308190       24.2449794769
  H        10.6676134621       -1.3709119202       23.4113692340
  O         9.5999841937       11.1888006395       26.7022587935
  H        10.4063366848       10.7517920178       27.0820596438
  H         9.1881355105       10.5335702345       26.1823884135
  O         0.4780930293       10.2223875570       15.6001946054
  H        -0.2373670600        9.8393611022       14.9996860693
  H         0.3526699459       10.0731762317       16.5613021254
  O        22.7717566228       -1.4789884442       18.2011574552
  H        23.3428430007       -2.2742241933       18.1437706184
  H        22.6660733701       -1.4047783156       19.1825503661
  O        13.8622111153       -1.9026265341       24.2949720487
  H        13.9411877137       -1.2553722746       25.0550056732
  H        13.1305919134       -2.5062833022       24.6218935918
  O        12.7745594179        3.6236540359       11.4957708802
  H        12.7880204146        2.7019844073       11.2387913423
  H        10.0947934800        0.1801848445       10.5077747990
  O        -0.5013659315        7.6316944607       10.9058707060
  H        -0.7425295368        8.0311745594       11.7602283644
  H        -0.6353702380        6.6532288017       11.0026106232
  O         1.7914777026       -4.4969175806       14.6623952853
  H         2.3620647887       -3.7977359605       15.0723039300
  H         1.0566055111       -3.9703034061       14.1912556564
  O         4.6449495511        7.3383462002       10.7854971125
  H         5.0379935639        7.2670488176        9.9280094153
  H         3.7294656378        7.4879296334       10.4913268421
  O         7.4472278446        8.1000446516       27.7985691533
  H         8.3542910041        7.9238869832       28.1328294638
  H         7.1032075860        8.8207270465       28.3089857421
  O         9.4862406861       -4.3463379949       16.1489017244
  H         9.3450398845       -3.3860969647       16.2527706838
  H        10.2128881524       -4.5677347827       16.7785252767
  O        -1.1431427806        0.8267401859       12.1215727671
  H        -1.8615568795        1.5184140697       12.0952499227
  H        -0.4075073841        1.2478494478       12.6467225835
  O         3.8886325482        4.7378748702       17.4659532417
  H         4.0318431637        5.5568710688       17.9491136177
  H         4.4870114289        4.0758507837       17.9193102645
  O         7.1182999652        0.2186931522       16.7525066792
  H         7.3155679826        1.1551604181       16.9524964617
  H         7.9420102117       -0.2479094756       16.9883636113
  O         8.3199079753        2.7602671370        7.3503021773
  H         7.4692619895        3.1597315920        7.6250917371
  H        13.6214574580        4.0083338046       11.2053334818
  O         1.0351498316        7.6753540938       26.6277679176
  H         0.6857165810        7.1663309533       25.8326524659
  H         1.6859244547        7.1258007479       27.1320607437
  O        -0.9438702375       -1.6091111981       13.4486568156
  H        -1.8477612326       -2.0559914062       13.5918195474
  H        -1.2756483712       -0.7614553025       12.9828019046
  O         4.9427136877        8.3688859946       26.6110751260
  H         4.6597320424        7.5158926103       26.9549013323
  H         5.9298051608        8.4325670005       26.5573884610
  O         4.9719089696        1.8160217053       27.4795305480
  H         4.0995150656        1.4663032115       27.1293335387
  H         5.7528692829        1.2973694528       27.2092108795
  O         4.5882646352        3.8356959844       11.4246885941
  H         5.2137379724        4.2142497158       12.1046520064
  H         4.9667697914        4.1446807083       10.5689659945
  O         5.6754949164       -5.0641353779       19.6068357686
  H         6.2664086503       -5.2305322641       18.8491357398
  H         5.9564173415       -5.6604446326       20.3199799123
  O        11.3247672713        5.7660932107       18.2860196240
  H        11.8389650552        5.0554267317       17.8071931799
  H        11.9766560847        6.4444821600       18.4329052564
  O        -0.8560727952        3.3978174792        8.7493477176
  H        -1.1647793199        3.7871402904        9.5716341465
  H        -1.7272102180        3.3256136531        8.1827932176
  O         7.0304177775        5.9956841126       17.1074625440
  H         6.7708511773        5.4733324053       16.2852088611
  H         7.8933470588        6.3445682030       16.7564624990
  O        15.2873475262       10.4713982098       20.6309449239
  H        16.0454093693       10.8332539846       21.1977896753
  H        15.6601222905       10.3322610676       19.7368870406
  O         8.8908106141        9.3815630033       17.3903018762
  H         8.4669648433        9.1065592161       18.2563483128
  H         9.8138802728        9.2290739298       17.6660487767
  O        10.0946085087        6.3266685234       13.4048320110
  H         9.2661955778        6.8526241035       13.2460891929
  H        10.1365255863        6.2218581826       14.4150929753
  O         6.8264995077        5.0086379117       27.7079123341
  H         7.4947984548        4.7608787261       28.4030511682
  H         6.6896322421        5.9738372236       27.8189670737
  O         1.6851175439       -0.8372826076       21.9701510128
  H         2.5326643547       -0.8718869803       21.4275947473
  H         1.9690533108       -1.3316571968       22.8724051486
  O         5.2713844345        7.1320431538       13.5111407620
  H         5.0107619433        7.0408562045       12.5504286604
  H         5.4421354981        6.2852019646       13.9466512542
  O         9.4770805174        7.2220000326        8.4272075901
  H         9.6024858817        7.7810633662        7.6811304579
  H         9.7917474756        7.6300492570        9.2621611230
  O         1.5987106012        4.0160454520       14.3712816826
  H         1.3991217968        3.6319277739       13.4390915798
  H         1.8229776253        4.9772282778       14.2394362346
  O         5.1422240970       -1.0168649559       18.0562602808
  H         5.9658801779       -0.8534510957       17.5467511891
  H         4.7732942842       -1.8761686754       17.6963840145
  O         4.4097476004        7.7929456552       16.6762169847
  H         4.3260496012        7.9894102803       15.6935164948
  H         5.0362780042        7.0617490684       16.6976168534
  O        -0.4673629180        5.0264511439       22.7020429038
  H        -0.7198528394        4.0914337878       22.6570648988
  H         0.4644225050        5.0637672320       22.3503446826
  O        -1.7431738791       13.7134944010       24.9782511469
  H        -2.0281012438       12.8823422640       25.5073174382
  H        -1.4234421467       13.4935210498       24.0576140714
 Pt         0.0646908105        0.1207877269        5.1457280161
 Pt         2.9028647023        0.1307141408        5.0422451188
 Pt         5.6811296314        0.0478654313        5.1798114281
 Pt         8.4947243615        0.1006009588        5.2050181258
 Pt         0.0516271180        2.8510435289        5.0929948339
 Pt         2.8782367992        2.7751225629        5.0993397394
 Pt         5.5850193810        2.9418327572        5.0994306033
 Pt         8.4521111808        3.0413175104        5.2906067533
 Pt        -0.1625687747        5.6515463438        5.3351715674
 Pt         2.8576775629        5.6566155379        5.1192274736
 Pt         5.6573590365        5.8063192026        5.0992396040
 Pt         8.4797703187        5.8480160149        5.0749386032
 Pt         0.2308081407        8.4356932336        5.1932155873
 Pt         2.7895217980        8.6214641482        5.1836011439
 Pt         5.7063216682        8.5258726725        5.1108039141
 Pt         8.5199884905        8.5307948302        5.1237791676
 Pt         1.4055550000        1.4055810000        3.0930150000
 Pt         4.2170550000        1.4055830000        3.0930190000
 Pt         7.0285270000        1.4055810000        3.0930190000
 Pt         9.8400280000        1.4055790000        3.0930150000
 Pt         1.4055570000        4.2170800000        3.0930200000
 Pt         4.2170580000        4.2170830000        3.0930370000
 Pt         7.0285240000        4.2170800000        3.0930380000
 Pt         9.8400260000        4.2170790000        3.0930200000
 Pt         1.4055560000        7.0285470000        3.0930200000
 Pt         4.2170560000        7.0285450000        3.0930380000
 Pt         7.0285220000        7.0285430000        3.0930380000
 Pt         9.8400240000        7.0285450000        3.0930190000
 Pt         1.4055540000        9.8400470000        3.0930150000
 Pt         4.2170540000        9.8400460000        3.0930190000
 Pt         7.0285250000        9.8400440000        3.0930190000
 Pt         9.8400270000        9.8400460000        3.0930140000
 Pt        -0.0001510000       -0.0001520000        1.0202960000
 Pt         2.8113710000       -0.0001510000        1.0202900000
 Pt         5.6228470000       -0.0001520000        1.0202870000
 Pt         8.4343230000       -0.0001540000        1.0202900000
 Pt        -0.0001510000        2.8113720000        1.0202920000
 Pt         2.8113750000        2.8113760000        1.0202920000
 Pt         5.6228490000        2.8113780000        1.0202920000
 Pt         8.4343210000        2.8113730000        1.0202920000
 Pt        -0.0001510000        5.6228460000        1.0202890000
 Pt         2.8113780000        5.6228480000        1.0202940000
 Pt         5.6228480000        5.6228470000        1.0202990000
 Pt         8.4343180000        5.6228440000        1.0202940000
 Pt        -0.0001530000        8.4343210000        1.0202920000
 Pt         2.8113730000        8.4343200000        1.0202920000
 Pt         5.6228450000        8.4343170000        1.0202920000
 Pt         8.4343190000        8.4343180000        1.0202920000
 Pt         1.4056640000        1.4056640000       34.9197120000
 Pt         4.2171620000        1.4056670000       34.9197080000
 Pt         7.0286440000        1.4056650000       34.9197080000
 Pt         9.8401410000        1.4056620000       34.9197120000
 Pt         1.4056680000        4.2171630000       34.9197080000
 Pt         4.2171670000        4.2171680000       34.9197040000
 Pt         7.0286390000        4.2171650000       34.9197040000
 Pt         9.8401370000        4.2171600000       34.9197080000
 Pt         1.4056660000        7.0286440000       34.9197080000
 Pt         4.2171650000        7.0286390000       34.9197040000
 Pt         7.0286360000        7.0286360000       34.9197080000
 Pt         9.8401360000        7.0286410000       34.9197080000
 Pt         1.4056630000        9.8401430000       34.9197120000
 Pt         4.2171600000        9.8401390000       34.9197080000
 Pt         7.0286410000        9.8401370000       34.9197120000
 Pt         9.8401390000        9.8401410000       34.9197160000
 Pt        -0.0000420000       -0.0000640000       32.8470000000
 Pt         2.8114850000       -0.0000630000       32.8469810000
 Pt         5.6229570000       -0.0000630000       32.8469810000
 Pt         8.4344310000       -0.0000650000       32.8469810000
 Pt        -0.0000410000        2.8114620000       32.8469850000
 Pt         2.8114900000        2.8114660000       32.8469770000
 Pt         5.6229580000        2.8114710000       32.8469730000
 Pt         8.4344290000        2.8114640000       32.8469770000
 Pt        -0.0000410000        5.6229340000       32.8469890000
 Pt         2.8114940000        5.6229360000       32.8469730000
 Pt         5.6229580000        5.6229360000       32.8469580000
 Pt         8.4344230000        5.6229340000       32.8469730000
 Pt        -0.0000420000        8.4344090000       32.8469850000
 Pt         2.8114880000        8.4344070000       32.8469770000
 Pt         5.6229560000        8.4344020000       32.8469730000
 Pt         8.4344270000        8.4344050000       32.8469770000
 Pt         1.1950294662        1.2311685703       30.8200805890
 Pt         4.0666861540        1.3716576270       30.9058843680
 Pt         6.9168625413        1.3137757843       30.7522273515
 Pt         9.6589903562        1.3637320935       30.7731637744
 Pt         1.1960662118        4.3030440663       30.7749267420
 Pt         4.0639229164        4.1677867887       30.7914224250
 Pt         6.9104779139        4.2428009790       30.8342664404
 Pt         9.7393357609        4.2254107292       30.8757642347
 Pt         1.3085682773        7.0363880468       30.8948478316
 Pt         4.1657123783        6.9537203094       30.9590240728
 Pt         6.8538809560        7.1151892993       30.7366152071
 Pt         9.7204672020        7.1111289928       30.7250134262
 Pt         1.3998656149        9.7590776421       30.8025186296
 Pt         4.2544280800        9.6989565546       30.6018487740
 Pt         7.0611420469        9.8593478818       30.8209751303
 Pt         9.7964439880        9.9247578457       30.6691559343
  O        -0.9770260032       -0.5525186222        9.8067867399
  H        -1.4482456506       -0.1662838645        8.9880033672
  O         2.6528085409        1.2267681641       29.3172645464
  H         2.8552614947        0.2978696330       29.0300867950
     391
 i =    51951, time =    25975.500, E =     -4226.2667995781
  O         2.0402518097        7.7330243600       18.2335598339
  H         2.8332014204        7.8174210465       17.7005208609
  H         2.4349337313        7.7905853077       19.1350907661
  O         9.9979188171        4.5355551827       27.6957478472
  H        10.3023469010        4.4045482203       26.7626089768
  H        10.7632401534        4.1156149720       28.1120436434
  O         7.6832924191       -8.8719160972       11.8481144717
  H         7.3547040356       -9.8253592907       11.7637039051
  H         7.6667989013       -8.3622121593       11.0057092253
  O        14.0983407083        6.2284710868        7.7568617767
  H        14.3174308237        7.1807981327        7.7880250827
  H        13.1297221006        6.1596632868        7.6696842739
  O        -0.7473832632        5.0564482026       11.0790696430
  H         0.0954552295        4.5248974388       11.1103089960
  H        -1.0523304460        5.0919584843       12.0369800832
  O         1.5803925659       13.1459299593       21.6762115871
  H         1.5146426982       12.2206946744       21.9366332834
  H         1.4047231701       13.1363342325       20.7300123415
  O         6.5411688876        4.3789638005       14.9448392827
  H         7.4124585961        4.0338908649       15.1618485346
  H         5.8762781046        3.6478231103       15.0007581658
  O         4.6085681361       12.3791301953       11.0567813117
  H         4.6428523077       13.3662646582       11.1364386474
  H         3.6729467633       12.0134785269       11.0054356144
  O        12.4120384962        1.9407659709       19.0907257813
  H        12.9611421621        1.2245291835       18.7298169641
  H        12.5299024599        2.7122422695       18.4694386074
  O        12.3831127250        1.8585807335       25.1479296713
  H        11.4532670106        2.0411846621       25.3533855842
  H        12.7749918353        2.6677961547       24.8275412843
  O         4.6447401759       11.7647189890        8.3963231957
  H         4.8437617947       12.0446306762        9.3135801309
  H         3.7015807472       11.7312664192        8.1795166306
  O        -0.2666517788        1.4876555932       14.7458131517
  H         0.3774575570        2.0812584984       15.2103780685
  H        -0.0722412034        0.6077174335       15.1613545248
  O         7.9315807763       -3.2380659742       19.7316616650
  H         6.9919037266       -3.4984610060       19.8248879124
  H         8.4528461775       -3.9371861105       20.2847003576
  O         3.3593613994       -5.0572375071       24.2736204694
  H         3.1815845378       -4.0677914204       24.2597621180
  H         2.9037939467       -5.3338965777       23.4266884859
  O         5.5446844419       -0.0936659827       14.2133298256
  H         6.2346091921        0.4147169198       14.6916741492
  H         6.0178600768       -0.3319535977       13.3595227234
  O         1.6608632885      -10.3071355928        8.0781279124
  H         1.9297721183       -9.3809096997        8.2815430771
  H         1.4327211743      -10.3384622880        7.0929980790
  O         1.4505659039        3.5051063718       28.5418089479
  H         2.0774889330        3.9466184295       27.9428794118
  H         1.7512874137        2.6050440193       28.6698811145
  O        15.2868021983        3.3429791250       21.5495907621
  H        15.6479317637        3.1622392636       20.6373314640
  H        14.4306822388        2.8198076967       21.5709716446
  O         8.6984562812        3.2210795902       14.6016743474
  H         8.4544505007        2.9636051526       13.6742626992
  H         9.5525618677        2.7496375546       14.8454869485
  O         6.4239364253        6.4539899419       24.3970745426
  H         5.4609410427        6.4806625984       24.3237391918
  H         6.6742485869        5.4916909921       24.6682570459
  O         3.5900070147        3.7389985720        8.2273587760
  H         3.4088441195        4.7524411873        8.1634373060
  H         3.5201442107        3.6187371543        7.2445867364
  O         3.3806347216        7.6067588448       20.6371938985
  H         4.1077443913        7.1856100581       20.1650603002
  H         3.5439184183        8.5631883316       20.6156179410
  O        14.2845786928        9.4028929257       14.3648365114
  H        14.8539923444       10.1643569331       14.0348574754