./conf.lmp (written by ASE) 

777 	 atoms 
3  atom types
0.0                  15.904  xlo xhi
0.0                  14.057  ylo yhi
0.0      37.029000000000003  zlo zhi


Atoms 

     1   2      8.5149100000000004      4.7053200000000004      21.038799999999998
     2   2      8.1223599999999987      5.9802900000000001      21.972000000000001
     3   2      14.575199999999999      1.7252799999999997      21.269300000000005
     4   2      13.538499999999999      2.7697400000000001      21.463400000000004
     5   2                 10.2874                 11.0893      9.8070400000000006
     6   2                   10.99      12.559699999999999      9.4828399999999995
     7   2      2.0548099999999998      2.2022699999999999      10.188000000000001
     8   2                 2.43614                 3.47349      10.863400000000002
     9   2      4.1377600000000001                 10.5746      8.5640199999999993
    10   2      3.6678199999999999      11.936699999999998       9.132480000000001
    11   2                 4.14283      6.0780500000000002      19.726700000000001
    12   2      5.4710899999999993      6.2923999999999998                 18.8445
    13   2      14.756499999999999                 11.2797      21.205900000000003
    14   2    0.045635799999999997      10.973699999999999      22.101099999999999
    15   2      12.144599999999999      4.5992699999999997      22.264800000000001
    16   2      13.519399999999999      5.2130799999999988      21.744199999999999
    17   2                 11.9495      10.759499999999999      26.441600000000001
    18   2      10.868399999999998      11.540100000000001      25.947700000000005
    19   2                  11.464     0.92982299999999984                  12.975
    20   2      12.596399999999999      2.0274999999999999      12.578000000000001
    21   2      13.731599999999998      8.9925200000000007      14.302600000000002
    22   2      14.862399999999997      9.6689199999999982      13.400900000000002
    23   2      2.9795799999999999      8.6645900000000005                 24.6265
    24   2      2.8080799999999999      9.0852500000000003      23.010000000000002
    25   2      15.898499999999999      7.5372299999999992      27.256399999999999
    26   2      0.9757539999999999      7.8496100000000002      28.353899999999999
    27   2      3.7806999999999995      1.0657700000000001      18.100300000000001
    28   2      2.3703999999999996                  1.6028      18.246200000000002
    29   2                 10.7034      6.9979300000000002      13.585600000000001
    30   2      10.931199999999999      5.6550200000000004      14.515300000000002
    31   2      7.7612300000000003                 11.9504      6.0436100000000001
    32   2      9.3991299999999995                 11.3566      5.9200299999999997
    33   2      3.2731699999999999                 11.9026      6.1080200000000007
    34   2                 4.93933                 12.1286      6.2490000000000006
    35   2      10.179399999999999      6.4772499999999988                 20.6218
    36   2      9.8604699999999994      7.9478399999999993      19.894700000000004
    37   2      5.6099799999999993      8.7563200000000005      16.430299999999999
    38   2      6.0529400000000004      8.1712699999999998      17.744700000000002
    39   2                 1.94432      11.094399999999998      9.1720299999999995
    40   2     0.56183799999999995                 11.9008      9.3537800000000004
    41   2      15.456200000000001    0.019097900000000001      9.1506799999999995
    42   2      14.920299999999999                 13.3636      10.520799999999999
    43   2     0.48977799999999994      13.265499999999999                 13.3035
    44   2      1.7183200000000001     0.11850799999999999      13.869700000000002
    45   2      14.325699999999998      6.6615200000000003       4.948290000000001
    46   2      14.247399999999999      7.3195800000000002      6.3665200000000004
    47   2      13.798499999999999      6.4320399999999998                 10.8375
    48   2      13.298199999999998      5.3050100000000002      11.924300000000001
    49   2      5.9618700000000002      6.1373800000000003      27.374400000000001
    50   2                 4.88497      5.0165499999999996                 26.6142
    51   2      1.7476399999999999      6.7102399999999998      5.0514900000000011
    52   2                 1.49505      5.9360799999999987      6.3475999999999999
    53   2      7.5319000000000003                  11.042      15.040400000000002
    54   2      8.1023499999999977      10.751099999999999      16.609999999999999
    55   2      6.6700799999999996      4.0889699999999998      15.779900000000001
    56   2      7.9146399999999995      4.2974399999999999      16.877700000000004
    57   2      9.0243400000000005      8.8705999999999996      16.997199999999999
    58   2      9.9948800000000002                 10.0253      17.231999999999999
    59   2      2.3219699999999999      3.2376399999999999      27.032100000000003
    60   2     0.85571599999999992      3.4211499999999999                 27.7454
    61   2     0.19481799999999996                 11.0284      27.764300000000002
    62   2     0.33111400000000002                  11.644      29.147600000000001
    63   2                0.262297      3.7433800000000002      9.9746600000000019
    64   2                 15.7752      4.1599000000000004      8.5966000000000005
    65   2      12.895399999999999                 3.57002      5.9729200000000011
    66   2                 12.2837      2.1924999999999999      5.7236600000000006
    67   2      6.0075599999999989      6.6734900000000001      15.306000000000001
    68   2      6.0127800000000002      7.9588799999999988                 14.3376
    69   2      8.3964999999999996      2.3890199999999995      10.117000000000001
    70   2       7.326509999999999      2.0380299999999996      8.9437099999999994
    71   2      12.763499999999999      7.4232499999999995      8.8764800000000008
    72   2                 14.3162      7.7132699999999996      9.0174699999999994
    73   2      15.433399999999999      9.5757300000000001      5.8008400000000009
    74   2                 1.06114                 9.76248      6.1906100000000013
    75   2      7.3995499999999987     0.77181900000000003                  26.584
    76   2      6.2928799999999994     0.18582599999999999      25.587499999999999
    77   2      7.1048900000000001                 3.01065      22.663400000000003
    78   2                 6.47546      3.8032299999999997      23.842500000000005
    79   2      5.4939299999999998      6.6426299999999996      22.100500000000004
    80   2      6.2280100000000003      7.8060299999999998                 21.5808
    81   2      6.1073699999999995      4.1802899999999994      5.4779400000000011
    82   2      7.0884399999999994      3.0418099999999995      5.8373799999999996
    83   2      7.6403299999999987                 12.9832      21.956000000000003
    84   2      8.9628499999999978                 13.5801      22.475200000000005
    85   2      5.9913400000000001      8.5211900000000007      5.5627300000000002
    86   2      5.0443099999999994      7.2363400000000002      5.6787099999999997
    87   2                 10.7142      8.3148900000000001      28.174299999999999
    88   2      10.510499999999999      9.0819100000000006      26.754899999999999
    89   2      7.9909599999999994                 9.45181      31.716699999999999
    90   2      8.8022399999999976      9.8777000000000008      30.368300000000005
    91   2      10.414099999999999      4.1692600000000004      8.4248499999999993
    92   2                 11.6427                 4.10785      9.4507100000000008
    93   2      13.950799999999999      9.1818899999999992      19.268800000000002
    94   2      12.721999999999998      9.7544900000000005      19.890999999999998
    95   2      8.2224500000000003     0.18159500000000001      8.7617399999999996
    96   2      8.6627500000000008      12.806299999999998      9.0730000000000004
    97   2       8.980459999999999      6.0031999999999996      27.099400000000003
    98   2      9.7381399999999996      4.5715300000000001      26.856400000000001
    99   2      8.2204499999999996      11.172599999999999      12.892200000000003
   100   2      7.4929300000000003      9.7567000000000004      13.061200000000001
   101   2      11.623599999999998      8.2498299999999976      30.174600000000005
   102   2      11.331899999999997      9.3673400000000004      31.168299999999999
   103   2      4.7158499999999997                 3.10894      12.796600000000002
   104   2      5.7941699999999994                 2.06358                 13.0448
   105   2       6.166879999999999      1.3786499999999999      6.7640399999999996
   106   2      6.2529199999999987      1.2837499999999999      5.2336500000000008
   107   2                 14.1386                 9.71584      9.0804600000000004
   108   2      12.870699999999998      10.168900000000001      9.6073000000000022
   109   2      4.6101899999999993      9.8353099999999998      23.609700000000004
   110   2      5.7828999999999997      9.9543800000000005      22.645900000000005
   111   2      6.7901499999999988      8.0657099999999993                 11.8308
   112   2      5.7239300000000002      9.1461199999999998                 11.8725
   113   2                 2.88056      7.0046899999999992      9.3551600000000015
   114   2      4.2255000000000003       7.774119999999999      8.9357500000000005
   115   2      8.8636700000000008                 6.01112      6.1760800000000007
   116   2      10.367399999999998      5.7538499999999999      5.6090900000000001
   117   2      5.3044299999999991      9.5074500000000004      20.526900000000005
   118   2      6.8889500000000004      9.5114800000000006      20.428000000000001
   119   2      6.5009399999999991      13.582499999999998      6.3290100000000011
   120   2                 6.90557                 12.8009      7.5846000000000009
   121   2                 10.4122      6.7620199999999997      29.763999999999999
   122   2      11.842000000000001       6.256759999999999      29.362900000000003
   123   2      1.1580299999999997      5.0888400000000003      14.038000000000002
   124   2                0.655976      3.5063200000000001                 14.2667
   125   2      2.6511100000000001      3.6023999999999998      13.072699999999999
   126   2                 3.46034      4.5601000000000003                 12.1957
   127   2      6.5456200000000004      3.0636700000000001      20.440799999999999
   128   2      7.7755699999999992      2.0758999999999999      20.499500000000005
   129   2      9.8318999999999974                    1.26      19.785599999999999
   130   2      8.7934199999999976     0.19123299999999999      20.213200000000004
   131   2      3.4072100000000001                 1.19686      5.3184500000000003
   132   2      3.3770499999999997      2.0553399999999997      6.7867900000000008
   133   2                 12.8848      13.949199999999999      11.783600000000002
   134   2      13.748699999999998      13.133900000000001      12.735200000000001
   135   2      15.117199999999999      1.6967199999999998      25.164200000000001
   136   2      13.925899999999999     0.60159399999999996      24.834700000000005
   137   2      5.1826799999999995     0.93525000000000003      8.5507600000000004
   138   2      5.1107299999999993      2.3947600000000002      8.0002600000000008
   139   2      3.0634199999999994      10.203799999999999                  20.372
   140   2                  2.9457      8.7775099999999995      19.688199999999998
   141   2      14.484400000000001      1.4178200000000001       7.999130000000001
   142   2      14.775600000000001     0.16581199999999999      7.0944500000000001
   143   2      3.3957199999999994      10.233700000000001      31.093299999999999
   144   2                 2.09043      10.999499999999999      31.129799999999999
   145   2      15.847300000000001      8.3027700000000006      19.057200000000005
   146   2      15.575999999999999      9.1122700000000005                 20.4633
   147   2      8.3927099999999975      3.1464599999999998      24.411300000000001
   148   2      9.8269099999999998      3.7317699999999996      24.292999999999999
   149   2                 11.9229      11.804600000000001      16.301300000000001
   150   2                 13.2033                 12.6677      15.664800000000001
   151   2      3.1369599999999997                 6.70688                 11.7913
   152   2      4.5352499999999996      7.0567799999999989      12.158799999999999
   153   2      1.5048899999999998      2.0672700000000002      5.9819800000000001
   154   2    0.036742799999999999                 1.65754      6.1307600000000004
   155   2                 14.8422      5.2998799999999999                 17.4666
   156   2      14.113999999999999      5.1657900000000003      18.700000000000003
   157   2     0.47929899999999992      7.3145999999999995      13.303400000000002
   158   2      15.224899999999998      6.3810500000000001      12.701000000000002
   159   2      5.2344699999999991                 11.5457      11.652799999999999
   160   2      4.1775500000000001      10.732299999999999      10.877000000000001
   161   2      12.046799999999998      10.027100000000001      17.711099999999998
   162   2      12.081699999999998      9.2325499999999998      16.364599999999999
   163   2      4.9005499999999991      4.3091100000000004      19.268899999999999
   164   2                 4.28287      2.8186300000000002                 18.9178
   165   2      15.159399999999998      9.4512300000000007      30.592300000000002
   166   2      13.499499999999998      9.7393499999999982      30.796099999999999
   167   2      8.3783300000000001      3.1360800000000002                 12.3918
   168   2      6.9672299999999989      3.5009000000000001                 12.0238
   169   2      15.174899999999997                 12.0909      15.491200000000001
   170   2      14.297499999999998      11.396100000000001      14.356199999999999
   171   2      15.722499999999998                 1.23366      14.136100000000003
   172   2      15.160399999999997                 2.19861      15.474300000000001
   173   2      10.551999999999998      5.7149599999999996      23.795600000000004
   174   2      10.011299999999999      4.9094199999999999                 22.6266
   175   2      11.896399999999998      5.1746100000000004      31.966999999999999
   176   2      12.551899999999998      4.1141500000000004      30.862500000000001
   177   2       7.626059999999999      9.9863800000000005      6.1486799999999997
   178   2      7.7493999999999987      8.4470700000000001      6.7528900000000007
   179   2      3.9846999999999997     0.99516999999999989      21.610399999999998
   180   2      4.2046099999999988      2.6450800000000001                 21.0411
   181   2      8.6899099999999994      9.4732900000000004      19.007300000000004
   182   2      8.9284199999999991      9.5743200000000002      20.656400000000001
   183   2     0.28290099999999996      3.9114100000000001      6.3459099999999999
   184   2      15.547499999999998      5.3729099999999992      6.5653100000000002
   185   2      1.9723999999999999                 11.5947      22.354399999999998
   186   2      1.7850299999999999      10.605700000000001      23.509799999999998
   187   2      10.393000000000001      1.1305700000000001      5.1472000000000007
   188   2      10.120399999999998      1.6206400000000001                 6.51579
   189   2      2.7449399999999997      7.0369099999999989      17.914500000000004
   190   2      3.8487899999999997      8.1954899999999995      17.461099999999998
   191   2      4.9439399999999996                 13.7941      19.987300000000005
   192   2                 5.17136                 13.1747      21.508700000000001
   193   2      11.265699999999999      11.508800000000001      5.5624900000000004
   194   2      11.124399999999998      11.520899999999999      7.1163499999999997
   195   2      12.954700000000001      11.479799999999999      11.284600000000001
   196   2      13.160499999999999                  10.272                 12.0997
   197   2                 1.36022      9.9690999999999992      12.742100000000001
   198   2     0.41983299999999996                 10.3163      11.468800000000002
   199   2                 3.63009      11.903600000000001      16.601099999999999
   200   2      2.9247800000000002                 11.1995      15.160000000000002
   201   2                  11.599      13.898599999999998      7.3994099999999996
   202   2      12.848699999999999      12.987799999999998      7.4983199999999997
   203   2     0.21033099999999999      9.5545899999999993      9.2484600000000015
   204   2     0.37847299999999995      8.0071300000000001      9.7144200000000023
   205   2     0.66353099999999987      3.2806999999999999      25.397200000000002
   206   2                 15.4161      4.2410100000000002      24.668399999999998
   207   2      12.119799999999998      7.0796399999999995      12.024699999999999
   208   2      10.578699999999998      7.0065600000000003                 11.6325
   209   2      2.1175699999999997     0.29575800000000002      11.653400000000001
   210   2      1.2877999999999998     0.19725899999999999                 10.3696
   211   2      2.1412900000000001                 13.0876      30.045500000000001
   212   2     0.93411499999999992                 12.9993      31.036000000000005
   213   2      13.014199999999999      2.3608699999999994      10.280500000000002
   214   2      14.145999999999999                 3.15395      9.5197500000000019
   215   2      15.140199999999998      6.0137299999999998      23.424199999999999
   216   2      14.250699999999998      6.1963699999999999      24.740400000000005
   217   2      12.827599999999999                 10.4894      29.108000000000001
   218   2      14.145499999999998      11.186999999999999      28.468100000000003
   219   2      10.734999999999999      6.3666700000000001      8.3717299999999994
   220   2      10.556900000000001                  7.7256      7.5577199999999998
   221   2      3.3384200000000002      6.0278600000000004      6.2460300000000002
   222   2      4.0664899999999999      6.0899999999999999      7.5147100000000009
   223   2      12.130699999999999      4.8883700000000001      7.4195000000000011
   224   2      12.905599999999998      5.7299600000000002      6.4187200000000004
   225   2      3.1877999999999997      9.0535999999999994                 14.1427
   226   2      3.7961099999999997      10.305400000000001                 13.2357
   227   2      5.3141499999999997      4.3417899999999996      14.227000000000002
   228   2      4.4802200000000001                 4.75596      15.437099999999999
   229   2      3.1516899999999994      6.1491199999999999      30.262400000000003
   230   2      3.4582599999999997      5.4671099999999999      31.642900000000004
   231   2      2.9259900000000001      7.3331799999999987      15.634499999999999
   232   2      3.5886399999999994      6.5713999999999997      14.338300000000002
   233   2    0.019852600000000001                  12.706                 19.7881
   234   2     0.78813099999999991                 13.8696      19.049499999999998
   235   2      5.4670999999999994      6.6411199999999999      31.101600000000001
   236   2      6.5210899999999992      7.7595799999999997      30.806000000000001
   237   2     0.25678200000000001      1.9113599999999999                 18.4026
   238   2     0.86852999999999991      2.6274999999999999      19.652700000000003
   239   2      4.0040999999999993      4.2439099999999996      7.0772300000000001
   240   2      3.2780099999999996      3.4762499999999998      8.3918700000000008
   241   2      7.4450299999999991      7.6202699999999988      19.043800000000001
   242   2      7.5306100000000002      6.2680800000000003      18.247800000000002
   243   2      2.3493699999999995      8.5428899999999999      6.9669999999999996
   244   2      3.0660299999999996      9.5195500000000006      6.0203300000000004
   245   2      13.072199999999999      5.5721499999999997      27.423200000000001
   246   2      12.279299999999999      4.5976600000000003      28.285599999999999
   247   2      9.0287000000000006      3.8888799999999999      6.6935200000000012
   248   2      8.8251100000000005      3.1353499999999999      7.9271700000000012
   249   2                 13.3828      2.0493700000000001      30.061400000000003
   250   2      13.044399999999998      1.9238099999999998      31.461900000000004
   251   2      9.6708899999999982      8.4104899999999994      5.1893200000000004
   252   2                 10.4244      9.2567699999999995      6.2667400000000004
   253   2      12.541899999999998      13.934200000000001                 17.2103
   254   2      13.298299999999998    0.049537400000000002      18.562799999999999
   255   2                 11.8195      1.3920999999999999      18.658799999999999
   256   2                 11.9992      2.1962600000000001      19.965900000000005
   257   2      14.331899999999997                 11.8147                  30.904
   258   2      13.058400000000001                  12.725      30.954500000000003
   259   2      5.5836800000000002                 10.6477      31.593600000000002
   260   2      5.0559999999999992      9.9789300000000001      30.200800000000005
   261   2      8.6178799999999978      9.2191500000000008      24.172499999999999
   262   2      9.9616399999999992      10.035500000000001                 24.5291
   263   2     0.30266699999999996      9.6314899999999994      17.359300000000001
   264   2      1.3981299999999999      8.4642400000000002      17.427400000000002
   265   2      13.549599999999998      5.9022399999999999      31.174400000000002
   266   2      15.119299999999999      6.4392099999999992      31.299600000000002
   267   2      7.9011899999999988      3.8707199999999995      30.353899999999999
   268   2      8.2077000000000009      3.9204399999999997                 31.9572
   269   2      8.4681599999999992      4.8417899999999996                 11.1752
   270   2      9.7600799999999985      5.1784100000000004                  10.285
   271   2      11.121099999999998      2.0910899999999999                 31.1416
   272   2      9.4947999999999997                 2.50753      31.168200000000002
   273   2     0.48553399999999997      5.2252400000000003      29.791899999999998
   274   2      1.1738599999999999      4.9664599999999997      31.058400000000002
   275   2      7.2634400000000001      7.6785199999999998      24.682800000000004
   276   2      6.5519400000000001      9.1527899999999995      24.596000000000004
   277   2                 15.0219      11.635099999999998      6.4403899999999998
   278   2      14.372099999999998      12.459300000000001      5.2834200000000004
   279   2      1.2615400000000001      1.3983300000000001      27.655500000000004
   280   2     0.57374400000000003     0.12673300000000001      27.210600000000003
   281   2      3.2194500000000001      2.1989700000000001      31.066300000000002
   282   2                 1.68259      2.0349200000000001                 31.2591
   283   2      15.460499999999998     0.64850600000000003      29.294500000000003
   284   2      14.597099999999999     0.22665499999999997      30.585999999999999
   285   2      13.606199999999998      7.2867199999999999                  26.512
   286   2      12.332199999999998      6.9608800000000004      25.617000000000004
   287   2      7.8833499999999992     0.37429000000000001      16.215299999999999
   288   2      7.7677099999999992      13.156199999999998      15.458700000000002
   289   2      14.795999999999998      4.7000000000000002      28.338900000000002
   290   2      15.851699999999997      5.6876600000000002      27.993600000000004
   291   2      9.2900500000000008                 1.74048                 14.4047
   292   2      8.3354700000000008      2.9100999999999999      14.769299999999999
   293   2      10.483000000000001      4.0522299999999998                 29.4909
   294   2      11.070499999999999      2.7416399999999999      28.810600000000004
   295   2      2.4472399999999994      13.147699999999999      27.925000000000001
   296   2      3.7936199999999998      13.728999999999999                 28.1601
   297   2      9.9740799999999989                 10.6843      28.914000000000005
   298   2      9.1816700000000004                 11.8713      29.479600000000001
   299   2      3.2409799999999995                 11.1013      27.967800000000004
   300   2      2.2996500000000002      10.011100000000001      27.157699999999998
   301   2      12.913500000000001                0.781559                 22.2806
   302   2      12.504899999999997      13.404500000000001      22.681000000000004
   303   2      10.264499999999998      6.7602700000000002      25.479099999999999
   304   2                 10.3157      8.1214700000000004      24.367999999999999
   305   2      5.9298199999999994      1.6443099999999999      23.924499999999998
   306   2      4.4116099999999996     0.95650999999999997      24.277600000000003
   307   2      4.8038600000000002      1.9405600000000003      28.674199999999999
   308   2      5.3402299999999991     0.83033999999999986      27.492200000000004
   309   2      7.6704100000000004      7.8591199999999999      28.073399999999999
   310   2                 7.56562      6.7132100000000001      29.149600000000003
   311   2      2.1103999999999994     0.49004999999999993      24.797600000000003
   312   2      3.2180199999999997      0.7759839999999999      25.839500000000005
   313   2      7.0738799999999991      4.4746899999999998                 28.0276
   314   2      7.7780699999999996      3.0879499999999998      28.249200000000002
   315   2      9.6406600000000005      13.854499999999998                 14.9038
   316   2      11.188399999999998                 13.6835                 15.1228
   317   2      1.4340099999999998      8.9626400000000004      30.567200000000003
   318   2     0.93841399999999986       7.433679999999999      30.600800000000003
   319   2      8.0673999999999992                 5.62561      25.240000000000002
   320   2      6.5180899999999991      5.7709400000000004      25.465700000000002
   321   2      6.6110599999999993                 14.0329      14.357300000000002
   322   2      5.0292500000000002      13.924899999999999                 14.3771
   323   2      11.121699999999999      12.231199999999999      30.186200000000003
   324   2      11.215899999999998                 13.4214      31.226300000000002
   325   2      8.4572699999999976      6.9246999999999996                 10.4598
   326   2      8.7373200000000004      8.3784200000000002                 10.1067
   327   2      12.552999999999999      9.7883999999999993      24.428599999999999
   328   2                 12.8443      9.0449999999999999      23.082599999999999
   329   2      13.194199999999999      9.3471699999999984      5.5436300000000003
   330   2      13.403499999999998      9.6198499999999996      7.1596200000000012
   331   2      4.4801599999999997      2.7152599999999993      26.652000000000001
   332   2      4.3163499999999999      3.6483500000000002      25.294100000000004
   333   2      14.800099999999999      9.1605000000000008                 24.5108
   334   2      15.452299999999999      7.8274400000000002      24.707700000000003
   335   2      7.3604299999999991      12.627099999999999                 27.3291
   336   2      7.6382500000000002                 11.1121      27.654800000000002
   337   2      5.7420200000000001     0.63255099999999997      30.995699999999999
   338   2      7.3058699999999988     0.98561399999999999      30.967800000000004
   339   2      4.9730999999999987                 12.8085      31.046700000000005
   340   2      4.0064099999999989                  13.936      31.490100000000005
   341   2      1.1489499999999997      12.378999999999998      6.3351800000000003
   342   2      2.0710799999999998      13.639200000000001      6.5733499999999996
   343   2      9.1528799999999979                 12.6432      26.573600000000003
   344   2      9.7715699999999988      13.511100000000001      25.283300000000004
   345   2      8.0351400000000002      13.249000000000001      31.362500000000001
   346   2      9.1233299999999993     0.30679200000000001      30.998900000000003
   347   2      1.0351999999999999                 11.3904                 26.0352
   348   2     0.49436499999999994      9.7429600000000001      25.788599999999999
   349   2      3.5956399999999999      4.5978399999999997      23.351600000000001
   350   2      3.8753499999999996      3.1722999999999999      23.021100000000001
   351   2                 3.39819      12.402699999999999      20.786900000000003
   352   2      1.8755799999999998                 12.1317                 20.2423
   353   2      8.7202699999999993      2.3503400000000001      26.278300000000002
   354   2      9.3835099999999976                 1.44374      27.432200000000005
   355   2      7.0846900000000002      5.6198499999999987      7.3377700000000008
   356   2      7.5386299999999995      6.6221300000000003      8.3938500000000023
   357   2      3.3576699999999997      3.3692899999999995                 16.7942
   358   2      2.2634300000000001      4.0340600000000002      15.770300000000001
   359   2      4.3804899999999991                 4.18926                 30.3934