     906
 i =        0, time =        0.000, E =     -9637.9187046209
  O         9.1745100000        6.3262500000       12.0294627200
  H         8.6494500000        7.1300100000       11.7377627200
  H         8.6417900000        5.5513000000       11.8497627200
  O        12.9166000000        3.2938100000       16.8358627200
  H        12.7402000000        4.0946200000       16.2719627200
  H        12.3087000000        2.5533000000       16.5594627200
  O         8.1958200000        2.6135300000       21.1140627200
  H         7.4708100000        2.0032600000       21.2580627200
  H         8.2797800000        3.2996700000       21.8075627200
  O         1.0888300000        4.7046900000       29.7967627200
  H         2.0266900000        5.0798200000       29.8515627200
  H         0.6446170000        5.0440100000       30.6404627200
  O        13.6934000000        2.7275500000       24.8149627200
  H        12.9516000000        2.4219200000       24.2683627200
  H        14.5649000000        2.5381600000       24.3770627200
  O        -3.3618300000       13.3337000000       11.5609627200
  H        -3.7376500000       13.3413000000       10.6499627200
  H        -3.3018000000       12.3381000000       11.6373627200
  O         2.2048900000       10.3291000000        9.8302627200
  H         2.9036300000       10.1108000000        9.2021627200
  H         1.8791200000       11.2002000000        9.5270627200
  O         3.1079400000       14.1663000000       21.2903627200
  H         2.6029200000       13.7033000000       22.0061627200
  H        10.8947000000        0.0704066000       20.7919627200
  O         1.5447800000        0.9955980000       19.7109627200
  H         0.4962010000        1.1359200000       19.7429627200
  H         1.6693100000        0.0078539700       19.6705627200
  O        12.2012000000        5.0066200000       29.7858627200
  H        11.5575000000        4.8607400000       30.4720627200
  H        11.7995000000        5.8114100000       29.2551627200
  O         6.0828200000        6.0163600000       11.5492627200
  H         5.3429500000        5.8790600000       12.1349627200
  H         6.4779200000        6.9395500000       11.6939627200
  O         8.6429600000        9.8614100000       26.0531627200
  H         8.0475600000        9.9172900000       25.2875627200
  H         8.6949500000        8.9096700000       26.1472627200
  O        12.2534000000        5.6081200000       15.6054627200
  H        12.8061000000        5.3640400000       14.8404627200
  H        12.9588000000        6.3176000000       16.0622627200
  O         8.3330900000       11.5612000000        8.6947627200
  H         9.3996500000       11.4912000000        8.8476627200
  H         8.0641700000       12.5051000000        8.8097627200
  O        12.3702000000        5.1128100000       26.1657627200
  H        12.7548000000        5.8142000000       26.7269627200
  H        13.1149000000        4.7712900000       25.6443627200
  O        -0.3532280000        4.1531800000       27.5843627200
  H         0.0863393000        3.5440600000       26.8412627200
  H         0.3714860000        4.3189100000       28.2982627200
  O        -1.1086100000       12.7541000000       22.2511627200
  H        -1.8718800000       13.2320000000       22.6241627200
  H        -1.4000800000       11.7691000000       22.1535627200
  O         5.0807800000        3.8991900000       28.5581627200
  H         5.2155200000        3.8062400000       27.5487627200
  H         5.1871900000        3.0665200000       29.1109627200
  O        -4.0170000000        8.8291700000       27.8752627200
  H        -3.5189700000        8.4759100000       28.6933627200
  H        -3.9881000000        9.8086100000       27.9994627200
  O         8.4241900000        9.5416200000       30.9737627200
  H         8.5747700000        9.9546300000       30.0521627200
  H         9.3147900000        9.1548600000       31.1449627200
  O        -6.8704000000       13.2640000000       25.7946627200
  H        -6.9113700000       12.3815000000       25.4780627200
  H         9.0144400000       13.4327000000       25.9369627200
  O        -1.0140200000        2.0840000000        9.8026627200
  H        -0.6980930000        2.6318100000        9.0203627200
  H        14.8848000000        1.8025100000        9.5638627200
  O        13.3120000000        0.1670640000       14.0949627200
  H         4.2609100000       14.3791000000       14.7358627200
  H        12.6873000000        0.4268210000       13.3585627200
  O        -3.0484400000       11.0565000000       17.5822627200
  H        -2.1377900000       11.4163000000       17.7196627200
  H        -2.8087700000       10.5008000000       16.7231627200
  O         1.9016600000        7.3578100000       21.2716627200
  H         2.1875200000        6.4987600000       21.6761627200
  H         1.3184800000        7.7690500000       21.9740627200
  O        -6.0969600000       12.7517000000       32.0235627200
  H        -6.0613900000       12.7276000000       30.9945627200
  H        -6.4583100000       13.7095000000       32.2804627200
  O         2.6991000000        3.0964200000       16.0454627200
  H         1.7739600000        3.2297000000       16.4719627200
  H         2.6275800000        3.3101900000       15.1016627200
  O         9.3405100000        8.8421400000       14.8028627200
  H         8.6065100000        9.1579400000       14.2217627200
  H         9.4928600000        7.8958500000       14.5111627200
  O        -0.8597510000        9.8256500000       13.4732627200
  H         0.0346933000       10.3164000000       13.4594627200
  H        -0.6531900000        8.8982200000       13.2258627200
  O        15.6011000000        1.4238800000       14.3869627200
  H        -0.8930830000        2.0078200000       13.6644627200
  H        14.7517000000        1.0239400000       14.0548627200
  O         4.5820800000        1.6467500000       32.6576627200
  H         5.3400300000        1.9363400000       33.2696627200
  H         4.3524500000        0.7629010000       33.0803627200
  O         7.6142100000        8.2397100000       11.3849627200
  H         7.4482400000        8.4556800000       10.4135627200
  H         7.3375600000        9.0370200000       11.8739627200
  O         2.6327400000        0.5767560000       15.3475627200
  H         2.6143200000        1.5595200000       15.6137627200
  H         3.3320900000        0.1349790000       15.8180627200
  O         1.2288400000        0.5541920000       32.3773627200
  H         1.3186600000        1.3080700000       31.6963627200
  H         1.2868700000        0.9655710000       33.2983627200
  O        15.7989000000        1.4235500000       19.6499627200
  H        15.7167000000        1.6338600000       18.6852627200
  H        -1.1203900000        2.2855200000       20.1309627200
  O         0.0446350000        7.1877000000       12.9469627200
  H         0.8258040000        6.8845500000       12.4728627200
  H        -0.5706800000        6.5670300000       12.3784627200
  O        12.9436000000        1.7889700000        9.5618627200
  H        12.1988000000        1.3359800000       10.1405627200
  H        12.8256000000        1.5169100000        8.6363627200
  O         4.9590000000        4.6702800000       14.0872627200
  H         5.5082500000        5.4497600000       14.3100627200
  H         4.0428000000        4.9452600000       14.2489627200
  O         0.8776190000       12.8054000000        9.3610627200
  H         0.7803940000       13.4887000000       10.0726627200
  H        -0.0277813000       12.6435000000        8.9495627200
  O         2.1125700000        7.1677400000       26.1673627200
  H         1.2501600000        6.8341900000       26.4683627200
  H         1.8517300000        7.9888600000       25.6406627200
  O         0.7455770000        4.8052800000       19.3034627200
  H         1.5542200000        5.0955400000       19.6704627200
  H         0.7846680000        4.3526500000       18.3897627200
  O         3.1333500000        0.6946040000       28.8040627200
  H        -5.4701200000       14.3933000000       29.0184627200
  H         2.3572700000        1.1922800000       29.2077627200
  O         7.4830300000        0.0622440000       15.3387627200
  H         6.7426300000        0.5939770000       15.7238627200
  H        -1.2376000000       14.5986000000       14.3300627200
  O         2.8257900000        4.9676000000       22.3727627200
  H         2.4786600000        4.7806500000       23.2929627200
  H         2.8333700000        4.2096600000       21.6715627200
  O         2.5644900000        8.1819500000       29.2307627200
  H         3.0781800000        7.2925500000       29.3127627200
  H         1.6275100000        7.9764600000       29.0130627200
  O         8.3649200000        6.8906400000       25.8029627200
  H         9.1494200000        6.7173500000       25.2317627200
  H         7.5457800000        6.5789600000       25.3995627200
  O         6.3399600000        8.5492900000       28.4582627200
  H         6.2186100000        9.3692200000       29.0047627200
  H         7.0579900000        7.9963200000       28.9166627200
  O         4.5264500000        9.8938200000        8.5604627200
  H         5.4826600000        9.5193400000        8.4583627200
  H         4.5419600000       10.1727000000        7.5598627200
  O        -5.2224400000       10.4777000000       14.5773627200
  H        10.9443000000        9.8163400000       14.4337627200
  H        -5.6144600000       11.3250000000       14.1703627200
  O        -3.9760100000        7.0885000000       20.1560627200
  H        -4.1208200000        8.0710000000       20.2637627200
  H        -3.1901200000        7.0369500000       19.5521627200
  O         3.0504400000       10.3880000000       12.4071627200
  H         3.7298400000       11.0943000000       12.3604627200
  H         2.5550200000       10.3209000000       11.5239627200
  O        13.3184000000        0.4906350000       33.0901627200
  H        14.2565000000        0.1063150000       33.2383627200
  H        13.5098000000        1.4333800000       32.8032627200
  O         8.1907500000        6.6931000000       28.5665627200
  H         8.2276600000        5.8136100000       29.0287627200
  H         7.8919700000        6.5907200000       27.5674627200
  O         3.6584800000        4.6309800000       18.1170627200
  H         4.4055200000        5.2444600000       18.4029627200
  H         3.6234100000        4.5647000000       17.1371627200
  O        10.1071000000        1.2536500000       19.8673627200
  H         9.4318300000        1.9305300000       20.0850627200
  H        10.2888000000        1.2604900000       18.8804627200
  O         4.8641900000       12.8373000000        9.4982627200
  H         5.7557100000       13.1051000000        9.3114627200
  H         4.9144100000       11.8965000000        9.2698627200
  O        -5.9697600000       10.7364000000       24.1877627200
  H        10.7970000000        9.8217300000       24.5135627200
  H        10.6461000000       10.6792000000       23.2135627200
  O        10.1961000000        3.1958300000       26.5370627200
  H         9.9872900000        3.1123400000       27.4929627200
  H        11.0737000000        3.7139100000       26.5830627200
  O         8.4471100000        2.9119000000       33.2923627200
  H         7.9625200000        3.6198400000       32.7971627200
  H         8.1500800000        1.9975000000       33.0646627200
  O        -1.9490400000       10.3556000000       22.2896627200
  H        -2.6871300000       10.3061000000       21.6429627200
  H        -2.3717300000       10.6932000000       23.1297627200
  O         9.2172000000        7.7235000000       22.2405627200
  H         9.2068900000        6.9654600000       21.5530627200
  H         9.7804400000        7.2849700000       22.9587627200
  O         6.6755900000        8.9062300000       22.2924627200
  H         7.2128700000        8.0868600000       22.5362627200
  H         5.9226200000        8.4866900000       21.8779627200
  O        -2.8236800000        9.4953900000       15.3683627200
  H        -2.0358000000        9.7292200000       14.8436627200
  H        -3.6296900000        9.5961600000       14.7798627200
  O         7.5498800000       11.0516000000       20.8069627200
  H         6.8775800000       11.7938000000       20.7945627200
  H         7.2659800000       10.2126000000       21.2228627200
  O        10.7311000000        8.2677400000       31.4369627200
  H        10.1721000000        7.5299600000       31.8446627200
  H        11.2496000000        7.8353100000       30.7300627200
  O        -0.0135949000        5.8061900000       32.1972627200
  H        -0.9780570000        5.9065400000       32.1213627200
  H         0.4246120000        6.7444800000       32.1239627200
  O         2.5918300000        7.1831600000       15.6307627200
  H         1.6846900000        6.8245200000       15.6832627200
  H         2.4866400000        7.8149700000       16.3868627200
  O         2.9886800000       10.7796000000       23.0776627200
  H         2.4565800000       11.6004000000       22.8960627200
  H         3.7981500000       10.9970000000       23.5724627200
  O         7.2860900000        0.3686310000        9.1497627200
  H        -1.4409000000       14.3599000000        8.4853627200
  H         6.7260700000        0.1443660000        9.8570627200
  O        10.6260000000        2.8007500000       13.3595627200
  H        10.1550000000        2.3039800000       14.0391627200
  H         9.9572700000        3.1481900000       12.6830627200
  O         5.6331700000        1.5751300000       20.6477627200
  H         5.5056200000        0.9982510000       21.5037627200
  H         4.8497900000        2.1597800000       20.6768627200
  O         5.5675700000        1.5783200000       16.5792627200
  H         4.9242600000        1.0623500000       17.2522627200
  H         5.1418800000        2.3161200000       16.1058627200
  O         2.7903500000       14.2228000000       30.8261627200
  H         3.6718600000       14.1206000000       30.2495627200
  H         2.0840800000       13.7746000000       30.2567627200
  O         2.7049200000        6.3790500000       12.0353627200
  H         2.6835100000        5.5444700000       12.5168627200
  H         3.0607700000        7.1525400000       12.6930627200
  O        -2.8408100000        6.4599900000       32.4803627200
  H        13.2577000000        5.8154300000       32.2971627200
  H        -2.9002000000        6.5596900000       33.4288627200
  O        -7.7350100000       13.9041000000       11.3307627200
  H        -7.0139000000       14.3484000000       11.8189627200
  H         9.2119600000       12.9818000000       11.7986627200
  O         5.4700600000       12.7525000000       24.6196627200
  H         4.8483600000       13.2189000000       25.2041627200
  H         5.5580800000       11.7871000000       24.8409627200
  O         9.5313700000        6.2015300000       32.5407627200
  H        10.3115000000        5.6824500000       32.8771627200
  H         9.1369900000        6.7227700000       33.2756627200
  O         3.7624300000        9.3454700000       21.0868627200
  H         3.1068700000        8.6210500000       21.0474627200
  H         3.3876200000       10.0075000000       21.7109627200
  O        16.1290000000        0.2802630000       28.6756627200
  H         7.8599300000       14.2390000000       27.9787627200
  H        15.4512000000        0.8673340000       28.2740627200
  O        11.6029000000        0.9233540000       11.6066627200
  H        11.2010000000        1.5374300000       12.3491627200
  H        10.8671000000        0.2600760000       11.4138627200
  O        11.4570000000        3.8680400000       19.1169627200
  H        11.2533000000        2.9150300000       19.4103627200
  H        12.1184000000        3.6478500000       18.3919627200
  O         4.3350000000        0.7934220000       18.5841627200
  H         3.4228400000        1.1843300000       18.8868627200
  H         4.8766900000        1.2488000000       19.3587627200
  O         6.7464000000       13.5827000000       22.3956627200
  H         6.0300100000       13.6607000000       21.6739627200
  H         6.1481000000       13.1860000000       23.1763627200
  O        -6.6247100000       14.4162000000        8.9567627200
  H        -7.0564100000       14.1068000000        9.8425627200
  H        -7.2161700000       14.2213000000        8.1947627200
  O         8.5245900000        3.5421100000       11.4446627200
  H         7.6738000000        3.3005500000       11.8637627200
  H         8.6955400000        3.1675900000       10.5663627200
  O        -3.9313000000       11.5053000000       28.3339627200
  H        -3.4069300000       11.8073000000       27.5389627200
  H        -3.2512600000       11.7546000000       29.1649627200
  O         5.6709200000        6.0913400000       19.2898627200
  H         6.5915500000        5.6921200000       19.2725627200
  H         5.7765900000        6.8528200000       18.6269627200
  O         0.5948530000        0.0687178000       22.2870627200
  H         0.8944840000        0.2915230000       21.3636627200
  H         8.1408900000       14.2315000000       22.2210627200
  O        -3.3657800000       13.0865000000       32.4816627200
  H        -3.2387400000       12.6208000000       33.3339627200
  H        -4.3819300000       12.9986000000       32.3640627200
  O         5.9928300000       10.3849000000       15.0290627200
  H         6.5948000000       10.8974000000       15.6010627200
  H         5.8968800000        9.5160900000       15.4479627200
  O        11.4025000000        1.9050300000       23.1951627200
  H        11.7879000000        1.2652700000       22.6125627200
  H        11.3106000000        2.8080000000       22.7691627200
  O        13.6803000000        5.3783100000       21.9835627200
  H        -3.5028000000        6.0753500000       21.2507627200
  H        12.8136000000        4.9979700000       22.2843627200
  O        10.9192000000        4.3053700000       21.9728627200
  H        10.2454000000        4.9302700000       22.3514627200
  H        10.9911000000        4.2909300000       20.9650627200
  O         6.9094500000        0.2098590000       12.8226627200
  H        -2.2597100000       14.3362000000       12.3823627200
  H         6.9195600000        1.2054500000       12.6808627200
  O        -6.2996100000       12.4714000000       29.3326627200
  H         9.8970600000       11.8933000000       28.8980627200
  H        -5.4567800000       12.0338000000       29.0129627200
  O        10.8785000000        6.9289000000       28.1683627200
  H        11.1338000000        7.8744100000       27.8725627200
  H         9.9405900000        6.6983200000       28.1890627200
  O        -1.6379200000        5.4272600000       11.7153627200
  H        -1.9566600000        5.4223700000       10.7806627200
  H        -2.4284100000        5.0967600000       12.1715627200
  O         3.1753700000        8.2162600000       33.4403627200
  H         3.7680100000        9.0263200000       33.2896627200
  H         3.7783100000        7.4321000000       33.3660627200
  O         7.4803200000        0.3338340000       26.0610627200
  H         6.7259700000        0.8594690000       25.5651627200
  H         7.6067800000        0.5679190000       27.0282627200
  O         9.8996500000        0.1801460000       24.8771627200
  H        10.1521000000        1.0042600000       24.3886627200
  H         8.9876100000        0.2448110000       25.2553627200
  O         8.6675700000        4.8730200000        8.3529627200
  H         8.9294800000        3.8909000000        8.5063627200
  H         7.7274200000        4.7991100000        8.5320627200
  O        -2.0806600000        9.8385300000        9.2876627200
  H        -1.1791300000        9.4015000000        9.2721627200
  H        -2.2303400000       10.0847000000       10.2743627200
  O        -6.1076000000       13.0382000000       19.3484627200
  H        -5.4382700000       13.0796000000       18.6083627200
  H        -6.6651200000       12.2110000000       19.0845627200
  O         5.8694700000       11.6040000000       28.9938627200
  H         5.7917600000       12.5511000000       29.3466627200
  H         5.0112900000       11.1657000000       29.2210627200
  O         4.6477200000        2.2035200000        7.9135627200
  H         5.1068300000        2.9971200000        8.2279627200
  H         3.6613500000        2.4171300000        8.1540627200
  O         1.4161200000       11.6605000000       16.3758627200
  H         1.5959600000       10.7242000000       16.7270627200
  H         0.5779820000       11.9418000000       16.8216627200
  O         1.0843200000       11.9155000000       13.3702627200
  H         1.0415200000       12.0856000000       14.3264627200
  H         1.9971200000       11.3913000000       13.1613627200
  O         7.1138900000       13.9825000000       32.9501627200
  H         7.9446100000       14.4002000000       32.4934627200
  H         7.0114100000       13.0269000000       32.8700627200
  O        -4.9705400000       12.7414000000       16.4706627200
  H        -5.3166400000       11.8314000000       16.2719627200
  H        -4.0268300000       12.5793000000       16.6928627200
  O         3.5958600000        5.8302700000       30.1191627200
  H         3.8529600000        5.9119600000       31.0952627200
  H         4.2949800000        5.2520000000       29.6901627200
  O         4.2345200000        5.9592300000       32.8317627200
  H         3.7824900000        5.1235200000       33.0927627200
  H         5.1996700000        5.8743400000       32.8206627200
  O         8.7912400000       13.8742000000       14.7961627200
  H        16.7064000000        0.0572257000       14.4595627200
  H        -7.3082100000       14.2498000000       15.2508627200
  O         2.8451400000       14.0715000000        8.2070627200
  H         3.5891700000       13.4666000000        8.5184627200
  H         2.0100300000       13.5710000000        8.4884627200
  O         9.9489600000        6.4891300000       19.5747627200
  H         9.7945800000        7.2806700000       19.0323627200
  H        10.7866000000        6.0568900000       19.3701627200
  O        10.6190000000        6.2898000000       24.1608627200
  H        11.4014000000        6.8025700000       24.3326627200
  H        10.8517000000        5.4225000000       24.6019627200
  O         7.0183800000        6.0246400000       15.3581627200
  H         7.1276000000        5.1961900000       15.9208627200
  H         7.9434600000        6.2062200000       15.1347627200
  O         9.1514200000        1.9895200000       15.5798627200
  H         8.4080800000        2.5303300000       16.0586627200
  H         8.5965400000        1.1730800000       15.2701627200
  O         1.5082500000       11.8325000000       19.4346627200
  H         1.9765900000       12.0689000000       18.6044627200
  H         0.9424440000       12.6433000000       19.6189627200
  O         4.1046500000        8.0815300000       13.6869627200
  H         3.5069200000        7.8707200000       14.5132627200
  H         4.0065700000        9.0658900000       13.4673627200
  O         3.1560000000       12.8432000000       33.2593627200
  H         3.8727700000       12.1310000000       33.1296627200
  H         3.5815500000       13.7383000000       32.9838627200
  O         6.7998500000        5.0211400000       32.2197627200
  H         7.1978200000        4.8378200000       31.3409627200
  H         7.1021200000        5.9163000000       32.5095627200
  O         1.9314100000        8.9981300000       17.5776627200
  H         1.2019700000        8.8370400000       18.2661627200
  H         2.6848900000        9.3235700000       18.1272627200
  O         1.0607600000        9.4385700000       24.8080627200
  H         1.6340300000       10.1095000000       24.3348627200
  H         0.4947810000        8.9873100000       24.1604627200
  O         5.6702900000       10.2546000000       24.6488627200
  H         5.0917200000        9.6345400000       25.1013627200
  H         5.9564700000        9.8779000000       23.8073627200
  O        -1.3809000000        6.7917700000       18.8089627200
  H        -0.7110280000        6.0824200000       18.7743627200
  H        -0.8756410000        7.5860500000       19.1440627200
  O         7.1503500000        7.7388200000       32.6209627200
  H         6.8834000000        8.2307100000       33.4707627200
  H         7.6304700000        8.3513600000       32.0199627200
  O        -0.2958040000        2.9566000000       12.2205627200
  H        -0.4543870000        2.4747900000       11.3838627200
  H        -0.9397130000        3.7043300000       12.1080627200
  O        -0.3109890000        8.0961000000       22.7163627200
  H        -0.8607440000        8.8651600000       22.3814627200
  H        -0.9233390000        7.4714900000       23.2420627200
  O        -3.8652100000        8.0400800000        8.6241627200
  H        -3.2147100000        8.6743100000        8.8824627200
  H        -3.9722400000        8.2153600000        7.5833627200
  O         9.2875800000       11.8900000000       12.9497627200
  H         8.3214900000       11.6054000000       12.9205627200
  H         9.3025900000       12.5258000000       13.7125627200
  O         7.5673800000       14.0811000000       25.9625627200
  H        15.9952000000        0.2874870000       25.4902627200
  H         6.9213400000       13.4904000000       25.4352627200
  O        -0.9722480000       12.7836000000       17.0824627200
  H        -0.8608900000       13.2727000000       16.2176627200
  H        -0.9529250000       13.3671000000       17.7938627200
  O        -3.2384600000        9.9809100000       32.7267627200
  H        -3.8074000000        9.3246100000       33.2497627200
  H        -2.3437200000        9.6866900000       32.9271627200
  O         7.3460600000        9.0632600000        8.7695627200
  H         7.8591100000        9.9035600000        8.7460627200
  H         7.8827800000        8.3579800000        8.2808627200
  O         8.0386700000        4.7326200000       19.3426627200
  H         8.2193100000        3.9643500000       19.9415627200
  H         8.9241800000        5.2762100000       19.4816627200
  O        11.6015000000        6.6523600000       10.9947627200
  H        11.7492000000        5.9768200000       10.3631627200
  H        10.6193000000        6.5315700000       11.3217627200
  O        -1.1952200000        3.7296800000       21.0251627200
  H        -1.8550600000        4.4291400000       21.2247627200
  H        -0.4760080000        4.2291900000       20.5708627200
  O        -3.2765300000       10.8652000000       24.5501627200
  H        -2.8314500000       11.4655000000       25.2100627200
  H        -4.1678500000       11.2110000000       24.3301627200
  O         4.9295800000       12.6705000000       12.1596627200
  H         4.8305900000       13.0200000000       11.2664627200
  H         5.0746100000       13.4036000000       12.8274627200
  O        15.3045000000        2.0463500000       16.9663627200
  H        14.4041000000        2.4253200000       16.8923627200
  H        15.4919000000        1.5712600000       16.0746627200
  O         3.6294800000       13.8883000000       26.7357627200
  H         2.7853900000       13.9989000000       26.2690627200
  H        12.3380000000        0.2239860000       26.9756627200
  O         9.2500000000       10.9561000000       18.5100627200
  H         8.7409500000       11.4973000000       17.7244627200
  H         8.5882200000       10.8580000000       19.2560627200
  O        -0.6035320000        8.5409500000       28.5119627200
  H        -0.7061780000        7.7038900000       27.9573627200
  H        -1.1547700000        8.5297200000       29.3476627200
  O         0.2255850000        3.7820300000       16.9611627200
  H         0.1960720000        4.6343800000       16.4563627200
  H        -0.5867110000        3.0837300000       16.9145627200
  O        -3.1612500000       14.5414000000       22.6186627200
  H        -4.0501500000       14.1835000000       22.5503627200
  H         5.1783600000        0.5355730000       23.3975627200
  O         2.1065500000        3.9538900000       13.3441627200
  H         2.6273600000        3.4812500000       12.5986627200
  H         1.1882500000        3.7947100000       13.0743627200
  O        -2.1668200000        6.5907600000       24.2490627200
  H        -2.9826200000        7.1174000000       24.5865627200
  H        -2.5058200000        5.9574200000       23.4381627200
  O        -2.6729200000        7.1443400000       16.3699627200
  H        -2.1759700000        7.1177900000       17.2590627200
  H        -2.8172100000        8.1322400000       16.1247627200
  O        -2.3048500000        5.4343800000        8.9201627200
  H        -2.7733100000        6.2205700000        8.5475627200
  H        13.6943000000        4.9696700000        9.0732627200
  O         3.5752600000       10.5206000000       29.7681627200
  H         3.1277600000        9.6519200000       29.4361627200
  H         3.0902500000       11.2465000000       29.3245627200
  O        13.5128000000        1.5316400000       27.1611627200
  H        13.5562000000        2.0003400000       26.3105627200
  H        13.5677000000        2.2080300000       27.8986627200
  O        10.7811000000        0.9428480000       17.2759627200
  H        10.1270000000        1.2411200000       16.5606627200
  H        11.3536000000        0.2910090000       16.8441627200
  O        14.3081000000        3.4178600000       29.3696627200