#     Step Nr.          Time[fs]        Kin.[a.u.]          Temp[K]            Pot.[a.u.]        Cons Qty[a.u.]        UsedTime[s]
         0            0.000000         1.584816904       330.000000000    -10876.798601515    -10874.685512309         0.000000000
         1            0.500000         1.606760568       334.569240047    -10876.820294584    -10874.685262420         5.769927490
         2            1.000000         1.672870883       348.335123002    -10876.885395177    -10874.684244816         0.092056259
         3            1.500000         1.799674328       374.738890297    -10877.010625270    -10874.682657518         0.089248472
         4            2.000000         2.011625006       418.872520960    -10877.221190066    -10874.681254533         0.090580196
         5            2.500000         2.329273753       485.015231950    -10877.538772806    -10874.681170953         0.095160623
         6            3.000000         2.753112910       573.269541529    -10877.964554299    -10874.683097264         0.097349180
         7            3.500000         3.254905493       677.755777173    -10878.469751285    -10874.686488248         0.098257228
         8            4.000000         3.784757276       788.084666105    -10879.003358529    -10874.690232870         0.097257363
         9            4.500000         4.287756534       892.822162721    -10879.509420389    -10874.693286273         0.095392691
        10            5.000000         4.720445311       982.919192914    -10879.943871275    -10874.695039557         0.103050207
        11            5.500000         5.059276295      1053.472595210    -10880.283283734    -10874.695611669         0.115036561
        12            6.000000         5.299568250      1103.507614939    -10880.523529161    -10874.695554874         0.110497865
        13            6.500000         5.447279783      1134.264988860    -10880.671282213    -10874.695584833         0.098367932
        14            7.000000         5.508920631      1147.100212793    -10880.733227422    -10874.695875196         0.099277626
        15            7.500000         5.487118328      1142.560407496    -10880.711856812    -10874.696288408         0.097005703
        16            8.000000         5.382750492      1120.828316042    -10880.607581717    -10874.696355821         0.097241385
        17            8.500000         5.200701971      1082.921090412    -10880.424982627    -10874.695771252         0.093987774
        18            9.000000         4.953604295      1031.468943125    -10880.176859793    -10874.694702780         0.091189047
        19            9.500000         4.660418137       970.419977788    -10879.882504627    -10874.693482008         0.093821948
        20           10.000000         4.342928795       904.310459104    -10879.563717569    -10874.692126701         0.111935640
        21           10.500000         4.025327670       838.177664053    -10879.244468922    -10874.690420273         0.112303187
        22           11.000000         3.736585207       778.053991391    -10878.953645210    -10874.688284896         0.097263769
        23           11.500000         3.511199259       731.122789059    -10878.726068038    -10874.686050926         0.095125676
        24           12.000000         3.384724563       704.787475795    -10878.597881770    -10874.684313099         0.096668685
        25           12.500000         3.384520835       704.745054407    -10878.597140867    -10874.683767608         0.094329877
        26           13.000000         3.518996402       732.746356669    -10878.732702530    -10874.684860159         0.095497893
        27           13.500000         3.771610942       785.347258317    -10878.987793587    -10874.687351100         0.098215178
        28           14.000000         4.104502296       854.663875629    -10879.323867500    -10874.690547524         0.111582270
        29           14.500000         4.469856112       930.740019769    -10879.692126776    -10874.693457531         0.097167616
        30           15.000000         4.823165468      1004.308194863    -10880.047455041    -10874.695463551         0.104467903
        31           15.500000         5.132587611      1068.737913443    -10880.357999796    -10874.696549039         0.111791114
        32           16.000000         5.379915004      1120.237893921    -10880.605875778    -10874.697031677         0.092828692
        33           16.500000         5.555819275      1156.865727290    -10880.782230851    -10874.697386312         0.093340337
        34           17.000000         5.654362727      1177.385030914    -10880.881134321    -10874.697622011         0.096012441
        35           17.500000         5.672125945      1181.083793657    -10880.898732857    -10874.697309321         0.097127447
        36           18.000000         5.612198734      1168.605393390    -10880.838178809    -10874.696516003         0.097665731
        37           18.500000         5.485380664      1142.198580710    -10880.710211218    -10874.695186242         0.111759575
        38           19.000000         5.308537335      1105.375211221    -10880.532032933    -10874.693660964         0.097230174
        39           19.500000         5.101192224      1062.200579215    -10880.323552177    -10874.692327893         0.097859276
        40           20.000000         4.882140968      1016.588424122    -10880.103323290    -10874.690948728         0.100116475
        41           20.500000         4.668625679       972.129000876    -10879.888830028    -10874.689768595         0.109154197
        42           21.000000         4.475580878       931.932064505    -10879.694981457    -10874.688765972         0.091947845
        43           21.500000         4.314149617       898.317887394    -10879.533186892    -10874.688211081         0.089427181
        44           22.000000         4.189747227       872.414082134    -10879.408778917    -10874.688024756         0.089220924
        45           22.500000         4.102461849       854.239001581    -10879.321755473    -10874.688119928         0.103418789
        46           23.000000         4.049676628       843.247748953    -10879.269136477    -10874.688135602         0.093116119
        47           23.500000         4.030090249       839.169356756    -10879.249519864    -10874.687970954         0.095733549
        48           24.000000         4.046033550       842.489165626    -10879.265324844    -10874.687710356         0.096242246
        49           24.500000         4.102466892       854.240051585    -10879.321683252    -10874.687517214         0.096776209
        50           25.000000         4.202646876       875.100123664    -10879.422417887    -10874.687947483         0.103879508
        51           25.500000         4.341922155       904.100850521    -10879.562903436    -10874.689017519         0.113351775
        52           26.000000         4.505454049       938.152433791    -10879.728216370    -10874.690635605         0.097668181
        53           26.500000         4.671007694       972.624998351    -10879.895677144    -10874.692354357         0.097688136
        54           27.000000         4.814384749      1002.479821202    -10880.040722410    -10874.693810232         0.111218089
        55           27.500000         4.916264691      1023.693868625    -10880.143536970    -10874.694512190         0.095905105
        56           28.000000         4.968561632      1034.583448733    -10880.195904247    -10874.694332283         0.096127629
        57           28.500000         4.975123079      1035.949712289    -10880.202185094    -10874.693783902         0.101174251
        58           29.000000         4.947058441      1030.105926445    -10880.173640183    -10874.693016416         0.100219705
        59           29.500000         4.897011852      1019.684928112    -10880.123501871    -10874.692616229         0.097384943
        60           30.000000         4.833816270      1006.525968117    -10880.060600516    -10874.692580733         0.100688873
        61           30.500000         4.760156998       991.188196550    -10879.987531924    -10874.692823492         0.109921373
        62           31.000000         4.674359950       973.323024900    -10879.902362702    -10874.693091811         0.095376958
        63           31.500000         4.574581129       952.546485568    -10879.802927898    -10874.693073968         0.117034964
        64           32.000000         4.462923517       929.296473635    -10879.691220407    -10874.692669281         0.095680432
        65           32.500000         4.346205910       904.992839448    -10879.574398253    -10874.692223246         0.096071840
        66           33.000000         4.233586287       881.542511750    -10879.461587398    -10874.691705052         0.097046156
        67           33.500000         4.135603333       861.139918518    -10879.363315125    -10874.691100227         0.097546214
        68           34.000000         4.063659520       846.159349866    -10879.291113311    -10874.690533028         0.098450232
        69           34.500000         4.029232563       838.990764272    -10879.256426465    -10874.689964681         0.097637060
        70           35.000000         4.042469638       841.747066656    -10879.269734020    -10874.689721721         0.099538205
        71           35.500000         4.108282690       855.451051674    -10879.336185147    -10874.690035056         0.119618484
        72           36.000000         4.222285050       879.189300948    -10879.451557434    -10874.691062259         0.089889081
        73           36.500000         4.368948695       909.728477431    -10879.600212738    -10874.692687330         0.090046541
        74           37.000000         4.524255807       942.067447778    -10879.757336933    -10874.694109988         0.093881269
        75           37.500000         4.665953154       971.572511905    -10879.900051086    -10874.694702588         0.096771211
        76           38.000000         4.782393129       995.818335979    -10880.016824515    -10874.694581490         0.096103210
        77           38.500000         4.872376997      1014.555311938    -10880.106816248    -10874.694104796         0.096093588
        78           39.000000         4.940149471      1028.667299586    -10880.174656249    -10874.693659026         0.096425765
        79           39.500000         4.989178204      1038.876353930    -10880.224205228    -10874.693639775         0.096829561
        80           40.000000         5.017069110      1044.683964105    -10880.253121225    -10874.694103543         0.104596055
        81           40.500000         5.016256403      1044.514737501    -10880.253197336    -10874.694416082         0.124736335
        82           41.000000         4.978839676      1036.723604057    -10880.216506437    -10874.694560031         0.095034204
        83           41.500000         4.900575395      1020.426950228    -10880.138525846    -10874.694267056         0.094556340
        84           42.000000         4.784270881       996.209332581    -10880.021928697    -10874.693413474         0.092281223
        85           42.500000         4.641476628       966.475864228    -10879.878379516    -10874.692121236         0.092208038
        86           43.000000         4.491358260       935.217324815    -10879.727263280    -10874.690612696         0.094594237
        87           43.500000         4.355341921       906.895193937    -10879.590680481    -10874.689558890         0.097581005
        88           44.000000         4.248945459       884.740689991    -10879.484322141    -10874.689123844         0.095108793
        89           44.500000         4.178445688       870.060808404    -10879.414413468    -10874.689243314         0.107797086
        90           45.000000         4.143331108       862.749041750    -10879.380057025    -10874.689518926         0.103464067
        91           45.500000         4.137976156       861.634001767    -10879.375827392    -10874.690142678         0.114599330
        92           46.000000         4.152965842       864.755243247    -10879.391940983    -10874.690744411         0.097048392
        93           46.500000         4.178691302       870.111951634    -10879.418611855    -10874.691150240         0.096108351
        94           47.000000         4.209648249       876.557991240    -10879.450145699    -10874.691172898         0.093304321
        95           47.500000         4.245241572       883.969444517    -10879.486269083    -10874.691131944         0.092039909
        96           48.000000         4.287017269       892.668228647    -10879.528551403    -10874.691043587         0.094117472
        97           48.500000         4.337297783       903.137936238    -10879.579345498    -10874.690929408         0.109244278
        98           49.000000         4.398193984       915.818105369    -10879.641010083    -10874.691030743         0.095799645
