ITEM: TIMESTEP
0
ITEM: NUMBER OF ATOMS
777
ITEM: BOX BOUNDS pp pp pp
0.0000000000000000e+00 1.5904000000000000e+01
0.0000000000000000e+00 1.4057000000000000e+01
0.0000000000000000e+00 3.7029000000000003e+01
ITEM: ATOMS id type x y z fx fy fz vx vy vz
1 2 8.51491 4.70532 21.0388 -0.617696 0.1969 0.308763 -28.0106 11.4666 0.07079
2 2 8.12236 5.98029 21.972 -0.797145 -0.100595 -0.235112 -27.3276 16.2318 -3.84835
3 2 14.5752 1.72528 21.2693 0.0621673 -0.274313 -0.489895 -17.5724 2.05506 21.6496
4 2 13.5385 2.76974 21.4634 -0.417567 0.91425 0.0505772 -5.18748 -23.3343 28.9131
5 2 10.2874 11.0893 9.80704 0.559819 -1.37499 0.0471197 -15.9218 18.7289 26.5462
6 2 10.99 12.5597 9.48284 -1.13023 -1.25845 0.181028 -12.5783 3.05289 16.7606
7 2 2.05481 2.20227 10.188 0.347708 1.95134 -1.05375 12.8838 -5.77632 -17.4878
8 2 2.43614 3.47349 10.8634 0.193564 0.234713 -0.944361 8.89331 28.0929 20.4289
9 2 4.13776 10.5746 8.56402 0.752803 -0.758005 -0.924251 -18.2175 -5.42198 -3.51908
10 2 3.66782 11.9367 9.13248 0.207685 -0.974906 -0.0402606 -17.138 22.5314 -20.8322
11 2 4.14283 6.07805 19.7267 -0.47637 0.445799 1.33369 9.14578 19.3564 -28.0334
12 2 5.47109 6.2924 18.8445 -1.54743 -0.910854 0.285848 19.1584 22.1894 -2.21681
13 2 14.7565 11.2797 21.2059 -1.63856 1.57238 -0.734544 27.0163 -17.1308 27.5218
14 2 0.0456358 10.9737 22.1011 -0.488841 -0.747532 -0.619085 15.5899 -16.4459 5.01382
15 2 12.1446 4.59927 22.2648 -0.434383 0.23145 0.816565 -11.7398 -0.00229007 -14.9578
16 2 13.5194 5.21308 21.7442 0.445096 -0.0351177 0.272069 10.0001 -9.76137 -8.86178
17 2 11.9495 10.7595 26.4416 -0.349315 -1.10238 -0.592778 6.83231 -11.5902 8.63235
18 2 10.8684 11.5401 25.9477 -1.01447 -0.00505687 -0.839027 -6.27209 -20.8148 28.0435
19 2 11.464 0.929823 12.975 0.435775 0.147382 -0.163789 -11.9108 -21.115 -7.63604
20 2 12.5964 2.0275 12.578 -0.341444 -0.633146 -0.130271 -11.9559 -21.1062 22.9259
21 2 13.7316 8.99252 14.3026 -0.374769 0.607867 -0.0610008 10.2055 5.3426 -2.11459
22 2 14.8624 9.66892 13.4009 0.224655 0.11195 -0.270656 -2.32868 27.887 -3.18573
23 2 2.97958 8.66459 24.6265 -0.425868 -1.09962 -0.207645 -6.26507 -19.3133 -16.1621
24 2 2.80808 9.08525 23.01 -0.383958 -1.65725 -1.07671 -18.8076 -21.1064 19.8415
25 2 15.8985 7.53723 27.2564 -1.44341 1.01417 -0.720249 11.0981 -19.4484 -15.3249
26 2 0.975754 7.84961 28.3539 -0.165432 -0.5138 0.23621 14.9636 0.0528086 -20.8858
27 2 3.7807 1.06577 18.1003 0.8555 -0.284238 -0.364055 -17.8375 -26.2729 -23.8587
28 2 2.3704 1.6028 18.2462 -0.64452 0.68593 -0.00041685 -5.70502 15.5216 1.69532
29 2 10.7034 6.99793 13.5856 0.480998 -0.519297 1.04635 16.0551 -3.22179 -12.5003
30 2 10.9312 5.65502 14.5153 -0.0090906 0.139903 -0.160967 15.1539 -4.95234 26.2782
31 2 7.76123 11.9504 6.04361 0.515512 -0.575865 -0.284688 25.5819 -9.38694 -6.6272
32 2 9.39913 11.3566 5.92003 -0.185863 -0.0413822 0.552638 -6.63499 -3.89387 -7.92619
33 2 3.27317 11.9026 6.10802 0.538184 0.530227 0.00124242 4.39907 -16.8781 21.5342
34 2 4.93933 12.1286 6.249 0.00590511 0.0642146 -0.091426 -22.8035 -19.8384 12.838
35 2 10.1794 6.47725 20.6218 -1.09625 -0.192647 0.392965 23.7217 4.76999 -15.0674
36 2 9.86047 7.94784 19.8947 1.18127 -1.98746 0.688123 -25.8587 5.84675 25.1268
37 2 5.60998 8.75632 16.4303 -0.127224 -0.469086 -0.136016 11.7763 20.4619 28.4398
38 2 6.05294 8.17127 17.7447 -0.397888 -0.111029 -0.0173302 8.35349 -16.066 -17.4669
39 2 1.94432 11.0944 9.17203 -0.904649 -0.519358 -0.047988 11.7471 -5.40462 -2.99157
40 2 0.561838 11.9008 9.35378 -0.243673 0.268081 0.112905 -4.91863 10.0155 16.0613
41 2 15.4562 0.0190979 9.15068 -0.372208 -0.137618 -0.0717235 25.7809 14.4234 9.036
42 2 14.9203 13.3636 10.5208 -0.557428 0.278923 0.332121 21.0622 -17.2124 -5.05124
43 2 0.489778 13.2655 13.3035 0.0965988 -0.354488 0.372005 -22.4865 7.60725 23.6608
44 2 1.71832 0.118508 13.8697 -0.0529686 -0.2906 0.187743 12.4384 22.9326 22.8866
45 2 14.3257 6.66152 4.94829 0.215131 -0.649422 1.21279 -9.27904 0.943278 -24.5662
46 2 14.2474 7.31958 6.36652 0.147401 -0.731098 -0.374878 -15.0826 26.6921 10.4582
47 2 13.7985 6.43204 10.8375 -0.237389 -0.166998 -0.452396 -16.5898 -25.7641 24.4621
48 2 13.2982 5.30501 11.9243 0.707449 0.145423 -0.256715 25.0082 16.7715 -19.9526
49 2 5.96187 6.13738 27.3744 -0.359415 -0.115114 -0.228694 -2.80256 -14.8342 8.02647
50 2 4.88497 5.01655 26.6142 0.630345 0.40763 0.695715 4.11793 -23.8809 -13.1614
51 2 1.74764 6.71024 5.05149 0.183708 0.296705 -0.258585 -28.4703 -26.4545 11.5234
52 2 1.49505 5.93608 6.3476 -0.0728794 0.26887 0.213561 3.98834 11.6125 5.67114
53 2 7.5319 11.042 15.0404 0.358801 -0.667542 -0.490588 26.8595 26.2271 0.0125932
54 2 8.10235 10.7511 16.61 -0.906483 1.42393 -1.82522 -15.221 -28.5174 -1.31062
55 2 6.67008 4.08897 15.7799 0.953657 -0.352703 0.860688 -3.62798 -24.6586 22.5981
56 2 7.91464 4.29744 16.8777 -0.254064 -0.459813 -0.766815 -23.6504 16.7829 -2.39586
57 2 9.02434 8.8706 16.9972 -0.145526 1.63931 0.836182 -11.6418 14.5388 25.6436
58 2 9.99488 10.0253 17.232 0.94173 0.147073 -0.0894762 19.8037 -24.3768 -17.5564
59 2 2.32197 3.23764 27.0321 -1.00629 -0.0562801 0.19143 21.6957 -28.699 -24.9586
60 2 0.855716 3.42115 27.7454 -0.496671 1.29391 0.769098 -28.1442 -20.5951 -7.49988
61 2 0.194818 11.0284 27.7643 -0.172023 -0.426032 -0.53223 4.87238 16.2337 28.6681
62 2 0.331114 11.644 29.1476 0.736832 0.459321 1.17661 1.49529 -8.63807 -1.84713
63 2 0.262297 3.74338 9.97466 0.475869 -0.336854 0.278893 7.7151 -27.9451 5.51979
64 2 15.7752 4.1599 8.5966 -0.0154861 0.418639 -0.912771 -12.2798 10.2267 13.4335
65 2 12.8954 3.57002 5.97292 0.469113 -0.760496 -1.61671 12.8286 -0.967003 22.3645
66 2 12.2837 2.1925 5.72366 0.416476 -0.557513 -0.138272 10.5247 12.3683 9.03785
67 2 6.00756 6.67349 15.306 -0.567279 -1.05475 -0.344327 -6.06091 -24.5504 -22.0028
68 2 6.01278 7.95888 14.3376 0.808881 -1.20814 1.43546 23.9028 20.1831 3.70529
69 2 8.3965 2.38902 10.117 -0.523864 0.162174 0.443204 13.4995 -25.5644 1.99912
70 2 7.32651 2.03803 8.94371 1.32457 0.0205479 0.722262 -3.91069 0.235136 14.5894
71 2 12.7635 7.42325 8.87648 -0.51971 0.235142 -0.279521 -15.6667 -5.61126 18.997
72 2 14.3162 7.71327 9.01747 0.443533 0.580412 -0.112358 -27.6337 -2.73577 1.24215
73 2 15.4334 9.57573 5.80084 0.316152 1.34334 0.0138936 -28.1741 0.497419 -4.08628
74 2 1.06114 9.76248 6.19061 0.228208 0.959788 -0.417989 2.65583 -16.6243 -22.1395
75 2 7.39955 0.771819 26.584 1.06493 1.03733 0.303528 -2.25347 10.44 -13.4595
76 2 6.29288 0.185826 25.5875 0.272775 0.259026 0.522617 28.0928 18.5183 -18.2399
77 2 7.10489 3.01065 22.6634 -0.142491 -0.30839 -0.403695 7.77579 1.90591 19.6854
78 2 6.47546 3.80323 23.8425 -0.33923 0.151537 -0.0681501 8.63579 10.3109 -27.9452
79 2 5.49393 6.64263 22.1005 0.526678 -0.488612 0.180729 -13.4234 11.2277 2.68141
80 2 6.22801 7.80603 21.5808 0.825755 -0.311599 0.366105 -11.6032 23.51 -0.506512
81 2 6.10737 4.18029 5.47794 0.372789 0.106475 0.00153139 -2.59231 23.9468 2.39272
82 2 7.08844 3.04181 5.83738 -0.0382756 0.640944 0.12738 -29.038 -15.0505 -17.2323
83 2 7.64033 12.9832 21.956 -0.623432 -0.254603 0.588234 -6.65899 0.386399 -6.05501
84 2 8.96285 13.5801 22.4752 0.675321 0.74789 1.3427 -0.788811 -11.9681 6.46212
85 2 5.99134 8.52119 5.56273 -0.385476 0.276562 0.320091 -17.9084 5.36121 19.3434
86 2 5.04431 7.23634 5.67871 -0.253626 -0.527216 0.336714 27.0429 21.6128 -24.3362
87 2 10.7142 8.31489 28.1743 0.0880622 -0.200004 -0.610012 7.00163 -19.9871 18.5461
88 2 10.5105 9.08191 26.7549 0.120922 -0.0649387 0.715965 24.7871 28.9541 -8.91739
89 2 7.99096 9.45181 31.7167 0.16841 -0.369386 -0.375849 4.16806 3.1863 -12.6658
90 2 8.80224 9.8777 30.3683 -0.936447 -1.33829 0.829556 -28.4193 15.2029 4.26668
91 2 10.4141 4.16926 8.42485 0.149594 1.27238 0.671678 12.6797 0.699326 10.9631
92 2 11.6427 4.10785 9.45071 -1.77918 2.29795 -0.710473 23.2464 -4.31914 9.106
93 2 13.9508 9.18189 19.2688 0.568703 -0.543691 -0.0102825 -25.7383 -9.77777 6.85023
94 2 12.722 9.75449 19.891 -0.233016 -0.187313 0.634721 -18.7476 -3.24528 0.493063
95 2 8.22245 0.181595 8.76174 -0.782568 -0.715571 0.489363 21.7865 -16.8665 -16.577
96 2 8.66275 12.8063 9.073 -0.46711 -0.113357 0.00694222 -2.2926 -6.41823 28.1105
97 2 8.98046 6.0032 27.0994 0.596641 -0.90236 -0.202148 8.10278 22.2725 -3.5881
98 2 9.73814 4.57153 26.8564 -0.0526191 0.378622 0.213922 -12.1387 -7.01889 9.71844
99 2 8.22045 11.1726 12.8922 0.150608 0.756325 -0.932055 15.8601 -17.7648 -27.6102
100 2 7.49293 9.7567 13.0612 0.630805 1.13341 0.587894 25.8672 8.47329 17.1937
101 2 11.6236 8.24983 30.1746 -0.00425884 -1.32617 -0.622158 11.3101 -10.4711 4.19466
102 2 11.3319 9.36734 31.1683 -1.93692 0.916928 2.23722 25.4754 5.01735 6.76209
103 2 4.71585 3.10894 12.7966 0.560672 0.164091 -0.229269 14.3065 23.6269 -15.6404
104 2 5.79417 2.06358 13.0448 0.362214 -0.490232 0.488494 11.567 -2.35449 2.23159
105 2 6.16688 1.37865 6.76404 0.231847 0.0268755 1.05983 0.641508 29.1358 16.2323
106 2 6.25292 1.28375 5.23365 0.43181 -0.268966 -0.241265 -12.9356 -2.97813 5.406
107 2 14.1386 9.71584 9.08046 1.94319 -0.861637 0.203303 -2.46369 -27.8432 -28.838
108 2 12.8707 10.1689 9.6073 0.19577 0.245719 -0.910659 10.0492 0.714403 -26.8774
109 2 4.61019 9.83531 23.6097 0.582268 0.284392 0.840727 -8.01084 -3.22465 -2.32925
110 2 5.7829 9.95438 22.6459 0.453394 -0.0502735 0.289813 1.27839 15.5225 16.9461
111 2 6.79015 8.06571 11.8308 -0.57564 0.0404582 0.472272 -15.0981 -2.03069 27.1967
112 2 5.72393 9.14612 11.8725 -1.22758 1.86974 -0.766097 26.5216 -1.42137 16.4104
113 2 2.88056 7.00469 9.35516 -0.229845 0.299415 0.280051 10.4513 1.21195 5.96262
114 2 4.2255 7.77412 8.93575 0.306018 0.563625 0.0869255 -25.3618 28.452 -1.24576
115 2 8.86367 6.01112 6.17608 0.39781 -0.524795 -0.415505 -20.334 12.5686 -2.33196
116 2 10.3674 5.75385 5.60909 -1.9097 -0.947857 -0.153849 13.98 11.3315 0.441679
117 2 5.30443 9.50745 20.5269 -0.600486 0.0123168 0.00467439 -26.3593 -19.9395 2.07622
118 2 6.88895 9.51148 20.428 -0.699792 0.0323829 1.03513 10.5237 -4.49262 5.73912
119 2 6.50094 13.5825 6.32901 0.256888 0.756888 -0.457419 4.51425 -3.21864 -17.8696
120 2 6.90557 12.8009 7.5846 -0.257863 -0.0164243 -0.156644 -0.821528 20.6389 -24.8607
121 2 10.4122 6.76202 29.764 0.190881 -0.0321769 -0.190813 -13.1121 0.56291 -10.1071
122 2 11.842 6.25676 29.3629 0.362986 0.15942 -0.239519 -11.7123 -4.67468 -25.2571
123 2 1.15803 5.08884 14.038 -0.674469 -0.49065 -0.206113 23.2411 24.0167 11.3595
124 2 0.655976 3.50632 14.2667 -0.19229 0.367183 -0.123184 -11.6221 -3.39158 -11.98
125 2 2.65111 3.6024 13.0727 -1.63973 -0.0370919 1.80247 22.1377 1.92221 2.31446
126 2 3.46034 4.5601 12.1957 0.0842502 -1.18558 0.178432 -4.57825 22.4829 -21.427
127 2 6.54562 3.06367 20.4408 -0.925741 0.179721 -0.361607 -26.3362 19.3671 -22.3256
128 2 7.77557 2.0759 20.4995 -0.322078 1.22452 0.983055 14.3855 11.1652 1.75692
129 2 9.8319 1.26 19.7856 -0.506431 0.540436 -0.284343 2.74176 -28.529 -22.5203
130 2 8.79342 0.191233 20.2132 -0.328231 -0.9443 0.92695 4.49506 23.7038 -4.54301
131 2 3.40721 1.19686 5.31845 0.164386 0.350567 0.126862 15.1915 -13.008 3.83339
132 2 3.37705 2.05534 6.78679 -0.180478 -0.41447 -1.19357 11.4115 5.01131 21.6911
133 2 12.8848 13.9492 11.7836 1.23737 -0.746642 -0.0289383 -6.43703 2.97357 23.264
134 2 13.7487 13.1339 12.7352 0.479986 -0.285755 0.410081 -16.0986 16.9376 -23.7706
135 2 15.1172 1.69672 25.1642 -0.924722 -1.38785 -0.136561 18.0467 -22.1592 -24.9976
136 2 13.9259 0.601594 24.8347 0.38698 0.352589 -0.122229 16.4296 1.16542 -18.8942
137 2 5.18268 0.93525 8.55076 0.388325 -0.13198 0.0160902 21.0056 21.9378 21.0415
138 2 5.11073 2.39476 8.00026 -0.242706 0.897998 0.171971 25.1662 -7.46898 17.3821
139 2 3.06342 10.2038 20.372 0.448821 -0.673803 0.385249 -26.4659 -5.56258 21.7408
140 2 2.9457 8.77751 19.6882 0.360854 0.285157 0.0420315 11.8752 -7.20315 0.00332005
141 2 14.4844 1.41782 7.99913 0.622401 -0.462318 -0.438346 3.67009 21.6338 -21.5549
142 2 14.7756 0.165812 7.09445 -0.450104 -1.19147 -0.670706 -21.5161 6.61333 -22.0562
143 2 3.39572 10.2337 31.0933 2.56581 0.240422 -0.364474 -1.13114 1.09066 6.03688
144 2 2.09043 10.9995 31.1298 -0.392956 0.747793 -0.0314052 -0.415329 -25.6672 21.608
145 2 15.8473 8.30277 19.0572 0.097005 0.118651 0.456484 -5.39033 3.98152 13.677
146 2 15.576 9.11227 20.4633 0.0492864 -0.755368 -0.19505 27.3984 -2.57048 -16.5652
147 2 8.39271 3.14646 24.4113 0.0224264 -0.207298 -0.257125 21.7932 -22.0026 -13.6129
148 2 9.82691 3.73177 24.293 0.509336 0.109947 -0.0462543 13.3241 -3.25964 -7.95941
149 2 11.9229 11.8046 16.3013 0.585668 0.968015 -0.637609 28.4918 25.7004 0.666154
150 2 13.2033 12.6677 15.6648 -1.8651 -0.260265 0.0371299 18.5009 -19.7974 3.16488
151 2 3.13696 6.70688 11.7913 -0.129369 -0.200215 -0.19097 17.6873 -5.25611 -11.5826
152 2 4.53525 7.05678 12.1588 1.30253 0.804254 0.110637 3.04605 17.981 -19.4128
153 2 1.50489 2.06727 5.98198 0.480456 -0.0783308 -0.663628 -17.061 -23.5672 17.113
154 2 0.0367428 1.65754 6.13076 -0.7113 -0.05564 0.101378 -5.17249 -4.40864 19.2457
155 2 14.8422 5.29988 17.4666 0.608401 0.469101 -1.01558 15.8752 3.1243 -6.21653
156 2 14.114 5.16579 18.7 0.0831783 -0.330973 0.802961 22.2564 16.5244 21.0395
157 2 0.479299 7.3146 13.3034 0.166908 1.61545 0.247187 -8.77077 -19.0662 0.920806
158 2 15.2249 6.38105 12.701 -0.249161 0.0604215 -0.0159554 -11.9284 -24.4479 10.227
159 2 5.23447 11.5457 11.6528 -0.861159 -1.68371 0.532255 0.84242 27.4556 26.7022
160 2 4.17755 10.7323 10.877 -0.380458 -0.569473 -0.427864 -12.5197 -3.33473 11.5067
161 2 12.0468 10.0271 17.7111 0.551525 -0.269091 0.277216 14.3516 24.8919 -16.1125
162 2 12.0817 9.23255 16.3646 0.344432 0.0268902 -0.189913 -1.20061 -1.51585 1.15718
163 2 4.90055 4.30911 19.2689 -0.613915 -0.589111 0.309555 -0.106893 -25.8728 2.62595
164 2 4.28287 2.81863 18.9178 0.813974 0.771491 0.947833 -11.6694 16.9592 -10.4619
165 2 15.1594 9.45123 30.5923 -1.01093 0.0253035 0.558 24.6026 15.7242 28.0339
166 2 13.4995 9.73935 30.7961 0.040816 -1.0598 -0.0392374 1.80067 -1.97223 19.4364
167 2 8.37833 3.13608 12.3918 0.200248 -0.165127 0.0712448 17.7565 -7.38748 -10.9103
168 2 6.96723 3.5009 12.0238 -1.31645 -0.107228 0.297327 2.38151 -25.5474 -3.33725
169 2 15.1749 12.0909 15.4912 0.97649 -0.983281 1.07908 10.023 25.5072 15.5643
170 2 14.2975 11.3961 14.3562 0.160997 -0.881243 0.245954 1.84358 20.21 -10.0394
171 2 15.7225 1.23366 14.1361 0.450092 -0.87211 0.0701926 18.7221 28.3621 1.04517
172 2 15.1604 2.19861 15.4743 0.569188 -0.939915 -2.36992 -18.6844 10.5106 9.10507
173 2 10.552 5.71496 23.7956 0.428547 0.437705 0.155167 16.9172 -16.6805 22.9011
174 2 10.0113 4.90942 22.6266 -0.892752 0.211625 -0.740192 0.526008 10.1175 -15.817
175 2 11.8964 5.17461 31.967 0.208331 -0.717694 -0.462303 15.1432 -10.3879 3.56143
176 2 12.5519 4.11415 30.8625 0.0764579 -1.23482 0.287064 -16.0283 -24.1873 21.2611
177 2 7.62606 9.98638 6.14868 0.515112 -0.303877 0.0532948 -11.6258 -7.11188 19.6084
178 2 7.7494 8.44707 6.75289 -0.213794 0.792817 -0.606576 -4.29926 -6.6422 -8.26635
179 2 3.9847 0.99517 21.6104 0.0718827 2.48467 -0.328337 -4.46375 24.6462 -9.56895
180 2 4.20461 2.64508 21.0411 -0.658004 -1.7231 0.955359 4.09089 -12.3267 -20.6598
181 2 8.68991 9.47329 19.0073 0.749003 1.20329 -1.2117 -5.71721 -14.6596 -28.8393
182 2 8.92842 9.57432 20.6564 0.0501778 -0.138462 -1.47709 -12.0474 14.2205 -23.7071
183 2 0.282901 3.91141 6.34591 0.308186 0.817703 0.480057 -21.4396 10.7104 -12.2734
184 2 15.5475 5.37291 6.56531 0.0294976 -0.232161 0.0827223 -16.1723 0.86196 6.6893
185 2 1.9724 11.5947 22.3544 0.105525 0.631149 -0.247342 14.0633 13.743 -9.55626
186 2 1.78503 10.6057 23.5098 -0.407565 0.903197 0.491787 -15.4923 13.4454 -3.33063
187 2 10.393 1.13057 5.1472 0.38291 -0.705363 -0.179627 4.73881 -15.2021 -2.12129
188 2 10.1204 1.62064 6.51579 1.13768 -0.7731 -0.0324354 1.43196 -24.5594 0.928761
189 2 2.74494 7.03691 17.9145 0.539984 1.52866 -0.90273 5.28705 -4.14025 -13.2439
190 2 3.84879 8.19549 17.4611 0.0956764 -0.122262 0.0877598 -18.3682 25.0327 21.9807
191 2 4.94394 13.7941 19.9873 0.162575 0.0739273 -0.117805 25.7133 -14.3958 -21.765
192 2 5.17136 13.1747 21.5087 -0.264233 0.156138 -0.497862 1.14723 24.5627 -15.1752
193 2 11.2657 11.5088 5.56249 0.251339 -0.329095 -0.227274 24.7588 18.6228 -8.61834
194 2 11.1244 11.5209 7.11635 -0.172407 -0.116198 -0.571799 21.0784 22.2311 0.00464109
195 2 12.9547 11.4798 11.2846 -0.116358 0.434989 -0.15114 25.8729 -12.3579 -21.461
196 2 13.1605 10.272 12.0997 0.339052 -1.00456 1.03429 -15.9228 0.528194 -11.0933
197 2 1.36022 9.9691 12.7421 -1.40155 0.043033 -0.861888 14.071 25.9726 -25.8744
198 2 0.419833 10.3163 11.4688 0.35778 0.657644 -1.2935 16.0575 -20.7055 1.51153
199 2 3.63009 11.9036 16.6011 -1.22115 -0.837388 -1.72441 14.1937 -7.66399 1.76364
200 2 2.92478 11.1995 15.16 0.379368 0.333478 1.04394 -0.664666 -22.3981 -20.4992
201 2 11.599 13.8986 7.39941 -0.24379 -0.313744 -0.0304661 14.5619 6.20917 0.186115
202 2 12.8487 12.9878 7.49832 -1.01418 -0.317286 0.501574 -11.246 26.937 -9.18034
203 2 0.210331 9.55459 9.24846 0.894487 0.643406 0.0251137 11.73 -1.14138 4.04685
204 2 0.378473 8.00713 9.71442 0.151204 0.391981 0.0552453 -12.4208 28.7045 -9.25877
205 2 0.663531 3.2807 25.3972 -0.873844 0.345837 -0.220774 -25.0827 0.179897 18.1592
206 2 15.4161 4.24101 24.6684 0.71367 -0.814676 0.380429 -13.7483 25.676 -0.787996
207 2 12.1198 7.07964 12.0247 -0.497029 0.22026 0.110338 -15.3829 -10.9677 -12.895
208 2 10.5787 7.00656 11.6325 0.298169 -0.0277232 0.00225042 21.3083 -17.1135 26.7678
209 2 2.11757 0.295758 11.6534 -0.292788 0.186506 0.310265 -16.0355 28.9042 26.4412
210 2 1.2878 0.197259 10.3696 -0.0508657 -0.185608 0.156903 27.6877 24.5225 7.99128
211 2 2.14129 13.0876 30.0455 0.570551 0.60531 -0.30943 -4.9135 -20.1671 21.987
212 2 0.934115 12.9993 31.036 0.108906 0.223492 0.213259 14.16 8.52161 13.8821
213 2 13.0142 2.36087 10.2805 0.000574089 -0.29325 0.206623 -20.0365 2.21597 -11.5889
214 2 14.146 3.15395 9.51975 -0.45973 -0.169127 -0.0845399 13.7957 0.823171 -4.51109
215 2 15.1402 6.01373 23.4242 0.258709 0.361519 0.252123 27.4114 -16.8683 12.0678
216 2 14.2507 6.19637 24.7404 0.786928 -0.263201 0.309419 9.30541 22.7983 -19.7851
217 2 12.8276 10.4894 29.108 -1.0397 -0.398524 1.84497 17.4887 -22.6742 -2.61464
218 2 14.1455 11.187 28.4681 0.11621 -0.0356444 0.451234 -18.9528 -15.7563 4.63473
219 2 10.735 6.36667 8.37173 0.285137 0.683376 0.44951 24.1367 -9.63158 17.3781
220 2 10.5569 7.7256 7.55772 0.0611773 -0.257839 -0.137898 23.321 26.4338 -21.8999
221 2 3.33842 6.02786 6.24603 0.927733 -0.0997784 -0.338767 5.56079 -4.92678 -10.1069
222 2 4.06649 6.09 7.51471 0.503735 0.509218 1.16683 -9.54463 22.2466 27.3589
223 2 12.1307 4.88837 7.4195 -0.362628 -0.24579 1.04081 16.3316 -16.2787 20.151
224 2 12.9056 5.72996 6.41872 0.388456 -0.522695 -0.511026 28.9856 -3.29089 -8.81074
225 2 3.1878 9.0536 14.1427 -0.122558 0.557237 -0.369888 -9.0414 -24.151 -7.88777
226 2 3.79611 10.3054 13.2357 -1.11336 -0.69088 0.225744 9.41418 -13.0261 -9.19049
227 2 5.31415 4.34179 14.227 0.660793 0.271178 0.229107 15.86 -20.5142 12.9073
228 2 4.48022 4.75596 15.4371 0.022147 -0.0743738 0.654752 22.6229 1.54492 10.25
229 2 3.15169 6.14912 30.2624 0.942721 -0.672886 0.943102 -20.3101 5.48426 -9.38343
230 2 3.45826 5.46711 31.6429 -0.0401805 0.182733 0.421128 -23.2565 -2.72124 12.527
231 2 2.92599 7.33318 15.6345 0.26058 -0.125667 0.336015 -20.6506 -8.52627 13.2275
232 2 3.58864 6.5714 14.3383 -1.22988 1.72887 0.844052 -13.312 19.6711 19.5933
233 2 0.0198526 12.706 19.7881 0.433992 0.524622 -1.09075 -24.2748 7.01373 8.9201
234 2 0.788131 13.8696 19.0495 0.0103409 0.990601 0.294579 -4.65922 1.31895 -1.47504
235 2 5.4671 6.64112 31.1016 -0.380927 -0.196638 -0.197643 28.8447 16.8614 -23.4475
236 2 6.52109 7.75958 30.806 0.0543077 1.04947 -0.0987772 -27.2446 13.2225 -20.5937
237 2 0.256782 1.91136 18.4026 -0.772342 0.432155 -0.957124 -1.04872 -11.6665 8.36645
238 2 0.86853 2.6275 19.6527 -0.00340566 -0.963253 -0.360623 9.78235 0.466406 -1.10191
239 2 4.0041 4.24391 7.07723 0.168969 -0.458124 0.714262 9.33012 -27.8465 -25.9048
240 2 3.27801 3.47625 8.39187 0.619453 0.00125962 -0.457395 -28.6087 -22.2465 22.7292
241 2 7.44503 7.62027 19.0438 -0.0457774 -0.603124 0.166263 24.3856 -20.0415 -22.5231
242 2 7.53061 6.26808 18.2478 0.428719 -0.546461 0.0953944 14.9155 6.98405 -23.9034
243 2 2.34937 8.54289 6.967 0.0105223 -2.83661 0.617581 -1.03589 29.2387 -2.16813
244 2 3.06603 9.51955 6.02033 -0.435658 -0.168981 0.442501 -28.5415 -0.334143 -0.584044
245 2 13.0722 5.57215 27.4232 -0.0597962 0.789942 -1.37185 -24.2131 -4.04301 -9.86034
246 2 12.2793 4.59766 28.2856 0.405358 -0.180767 0.32067 -0.330078 9.19197 -19.5442
247 2 9.0287 3.88888 6.69352 -0.403105 1.53965 -1.96583 -10.8318 -1.0518 -4.91395
248 2 8.82511 3.13535 7.92717 0.279883 -0.955857 0.825784 13.3425 15.5324 7.84116
249 2 13.3828 2.04937 30.0614 0.90515 -0.473548 -1.52693 -23.2116 -6.2826 -22.3444
250 2 13.0444 1.92381 31.4619 -0.38284 0.776078 0.0824784 -9.74302 8.10075 -11.539
251 2 9.67089 8.41049 5.18932 -0.0292285 -0.186244 -0.195264 -21.103 19.3371 -2.21186
252 2 10.4244 9.25677 6.26674 -0.391634 -0.161484 -0.282201 -6.17774 -7.63032 -14.8983
253 2 12.5419 13.9342 17.2103 0.352732 0.469972 0.279272 18.8463 19.8327 -3.72131
254 2 13.2983 0.0495374 18.5628 0.149608 -0.539216 0.103881 20.6935 17.9057 -3.8422
255 2 11.8195 1.3921 18.6588 -0.104953 0.588157 -0.0857896 27.6063 -3.84196 -9.2986
256 2 11.9992 2.19626 19.9659 -0.816994 0.130223 -1.17826 4.48059 13.509 17.4567
257 2 14.3319 11.8147 30.904 0.343233 -0.972678 0.0545578 3.96378 6.51825 10.8581
258 2 13.0584 12.725 30.9545 0.102281 0.264864 0.0525004 6.07004 -8.54814 -4.89344
259 2 5.58368 10.6477 31.5936 -0.457057 -0.502517 -0.442105 8.50527 -28.1017 -4.94267
260 2 5.056 9.97893 30.2008 0.719237 -1.23955 -0.985946 -3.29436 -9.25523 -6.28412
261 2 8.61788 9.21915 24.1725 0.87945 -0.0805672 0.360024 -6.99909 -7.3837 -5.53289
262 2 9.96164 10.0355 24.5291 0.160971 0.418812 0.455215 -21.0603 -20.9333 16.4824
263 2 0.302667 9.63149 17.3593 0.209106 0.888393 -0.557403 -2.17663 20.5372 13.8192
264 2 1.39813 8.46424 17.4274 0.525269 0.341072 -0.0272409 -29.0473 3.90439 -1.13946
265 2 13.5496 5.90224 31.1744 -0.241468 -0.565642 -0.152942 18.8067 -5.2103 1.18447
266 2 15.1193 6.43921 31.2996 0.523592 -0.714354 -0.685134 -7.33217 -13.5493 -6.83843
267 2 7.90119 3.87072 30.3539 -0.110154 -0.0125147 -0.0403114 -3.56364 8.25854 19.3456
268 2 8.2077 3.92044 31.9572 -0.445672 -0.0557948 -0.447404 6.59828 15.9406 -5.29202
269 2 8.46816 4.84179 11.1752 0.808739 0.336966 -0.154381 8.21552 -5.07961 -15.8503
270 2 9.76008 5.17841 10.285 0.921978 -0.570546 -0.953834 -20.5391 1.89844 10.523
271 2 11.1211 2.09109 31.1416 -0.777782 -0.242008 -0.136421 24.1524 20.2692 -5.5554
272 2 9.4948 2.50753 31.1682 0.347438 0.106204 0.0224408 8.41055 10.9414 25.2097
273 2 0.485534 5.22524 29.7919 -0.504581 -0.110297 -1.26877 7.91689 -14.805 -25.1631
274 2 1.17386 4.96646 31.0584 0.448076 -0.324054 0.973287 -27.6478 -6.68469 -23.4013
275 2 7.26344 7.67852 24.6828 -0.122947 1.50312 0.874132 -7.45159 18.0116 28.7959
276 2 6.55194 9.15279 24.596 -1.05618 0.519424 -0.826048 -5.02653 2.33549 16.8335
277 2 15.0219 11.6351 6.44039 -0.188078 0.282353 0.0526593 15.022 -7.39152 -20.5824
278 2 14.3721 12.4593 5.28342 0.134155 0.277055 1.59565 13.1542 -4.40057 -19.8305
279 2 1.26154 1.39833 27.6555 -0.0732111 0.417145 0.462273 10.5646 -16.9658 5.23278
280 2 0.573744 0.126733 27.2106 0.203707 0.36458 1.56711 -1.31151 -1.42951 -3.89809
281 2 3.21945 2.19897 31.0663 0.744502 0.462233 -0.215291 20.2059 -20.8737 28.6014
282 2 1.68259 2.03492 31.2591 -0.218602 0.13297 -0.451772 -12.7866 -3.99347 7.25248
283 2 15.4605 0.648506 29.2945 -0.508229 0.56994 0.0745418 -14.929 -13.9291 17.2041
284 2 14.5971 0.226655 30.586 0.17046 0.687305 -0.723764 10.7213 -3.59028 26.9131
285 2 13.6062 7.28672 26.512 -0.0493904 0.560911 0.288036 -21.5543 5.14399 -20.0301
286 2 12.3322 6.96088 25.617 0.524287 -0.382906 0.0929086 -22.9349 -15.3962 -1.23396
287 2 7.88335 0.37429 16.2153 0.0857275 0.678729 0.257088 3.27542 28.6137 -21.1965
288 2 7.76771 13.1562 15.4587 0.359353 -1.06779 0.126162 2.34496 0.841185 7.00066
289 2 14.796 4.7 28.3389 -3.61494 -0.619597 0.100241 4.85687 -11.3134 0.902357
290 2 15.8517 5.68766 27.9936 0.697636 -0.0247508 -0.00342255 27.4891 7.47358 -9.50827
291 2 9.29005 1.74048 14.4047 0.0715567 1.38826 -0.961661 -24.5643 -24.3954 19.3255
292 2 8.33547 2.9101 14.7693 1.52241 0.289234 -1.1048 17.9007 28.6397 7.18189
293 2 10.483 4.05223 29.4909 -0.226302 0.0943675 0.347169 21.8592 -19.2925 -15.6488
294 2 11.0705 2.74164 28.8106 -0.40711 1.5868 -0.381577 -12.4053 -2.45561 -8.20291
295 2 2.44724 13.1477 27.925 -0.260349 0.140179 -0.257892 13.3134 -7.81677 -3.10624
296 2 3.79362 13.729 28.1601 0.875526 1.2056 0.375904 -10.1212 0.345631 7.72875
297 2 9.97408 10.6843 28.914 0.187746 -0.650851 -1.01632 9.68619 15.1358 -17.5121
298 2 9.18167 11.8713 29.4796 -0.90005 0.833822 -0.567175 9.2321 13.9041 17.3604
299 2 3.24098 11.1013 27.9678 0.103789 1.01699 -0.17102 16.455 19.9573 -5.67931
300 2 2.29965 10.0111 27.1577 1.10215 0.860208 0.906688 22.7546 1.98966 -28.9699
301 2 12.9135 0.781559 22.2806 0.0538132 0.409156 -0.201174 5.32339 24.1276 12.169
302 2 12.5049 13.4045 22.681 0.09971 -0.235116 0.0914024 20.912 20.8239 -2.56214
303 2 10.2645 6.76027 25.4791 0.33959 1.26681 -1.37809 -10.3836 17.8811 -9.19633
304 2 10.3157 8.12147 24.368 -0.402925 -0.636182 0.493706 -24.0885 -6.86763 -10.9059
305 2 5.92982 1.64431 23.9245 -1.00994 -0.788055 0.277466 18.3698 -9.75568 28.6231
306 2 4.41161 0.95651 24.2776 0.267362 0.182038 -0.0804473 3.07589 -4.73669 -18.8781
307 2 4.80386 1.94056 28.6742 0.361589 -0.673593 -0.801399 0.709338 4.1812 -8.68757
308 2 5.34023 0.83034 27.4922 0.881685 0.371834 0.389544 22.4872 -6.83101 21.9627
309 2 7.67041 7.85912 28.0734 -0.123308 0.285513 -0.322164 13.4562 4.41432 6.77274
310 2 7.56562 6.71321 29.1496 0.0041393 -0.106959 -1.90112 18.5472 2.04339 0.250313
311 2 2.1104 0.49005 24.7976 0.296147 -0.166949 0.240426 19.2614 5.7005 13.5116
312 2 3.21802 0.775984 25.8395 -0.409567 0.230928 -0.5402 -13.8444 -16.1309 -0.458628
313 2 7.07388 4.47469 28.0276 0.0854887 -1.22547 1.19257 -13.274 17.5642 22.5796
314 2 7.77807 3.08795 28.2492 -0.664788 0.269813 0.145211 13.6199 17.0767 -16.3685
315 2 9.64066 13.8545 14.9038 0.0899878 0.261699 0.0437575 7.09649 1.49931 0.922493
316 2 11.1884 13.6835 15.1228 0.260086 -0.331506 0.0366579 16.4319 -18.7782 8.05429
317 2 1.43401 8.96264 30.5672 -0.481815 -0.785277 -0.17283 5.69782 26.4424 7.47683
318 2 0.938414 7.43368 30.6008 0.1833 -0.16274 -0.0152691 27.8241 -11.903 -5.46085
319 2 8.0674 5.62561 25.24 -0.115212 0.0367509 -0.0948448 24.8217 27.6728 7.88124
320 2 6.51809 5.77094 25.4657 0.664651 0.563017 -0.811991 9.58388 -15.1711 -4.56409
321 2 6.61106 14.0329 14.3573 -0.361145 0.583795 -0.427264 10.3037 25.0556 -2.50791
322 2 5.02925 13.9249 14.3771 -0.189406 0.293697 -0.232899 27.418 -22.5076 2.35022
323 2 11.1217 12.2312 30.1862 -0.380005 0.201474 0.0595326 13.9554 5.58486 -7.80196
324 2 11.2159 13.4214 31.2263 -0.156236 -0.293952 0.0244767 -4.69835 -15.5917 -25.5418
325 2 8.45727 6.9247 10.4598 -0.878012 0.317609 -0.332248 14.9934 -22.7657 -24.4197
326 2 8.73732 8.37842 10.1067 0.0252404 0.609754 -0.110221 0.586624 -19.5917 23.6427
327 2 12.553 9.7884 24.4286 0.876984 -0.0898868 -0.471405 -0.760969 -10.0171 2.71713
328 2 12.8443 9.045 23.0826 0.415511 -0.148521 -0.114466 6.38385 23.2821 14.8204
329 2 13.1942 9.34717 5.54363 0.615839 -0.53163 1.28459 23.6175 1.3414 26.433
330 2 13.4035 9.61985 7.15962 0.0751559 -0.382264 -0.0393735 6.14055 11.6669 -12.9096
331 2 4.48016 2.71526 26.652 -0.354247 1.87624 -0.373924 8.84776 19.8672 -5.33906
332 2 4.31635 3.64835 25.2941 -0.310488 -0.239459 0.0507207 -25.1182 -13.7667 7.8683
333 2 14.8001 9.1605 24.5108 0.525258 0.248193 0.190453 25.0939 0.405095 16.926
334 2 15.4523 7.82744 24.7077 0.869805 0.294602 0.299485 -2.41988 9.56431 5.70384
335 2 7.36043 12.6271 27.3291 0.0928984 0.286737 -0.0499345 -6.07808 -21.9529 6.05874
336 2 7.63825 11.1121 27.6548 0.612535 -0.1669 -0.395283 17.458 -13.9928 -5.97428
337 2 5.74202 0.632551 30.9957 0.622945 1.18872 0.604881 16.4067 24.2053 -22.1768
338 2 7.30587 0.985614 30.9678 -0.253878 0.0851586 0.0703717 10.8441 21.6975 0.411728
339 2 4.9731 12.8085 31.0467 -0.309017 0.298313 -0.20624 -5.50064 13.8281 21.6719
340 2 4.00641 13.936 31.4901 -1.09613 0.302093 1.28674 19.1666 -15.0852 -17.0022
341 2 1.14895 12.379 6.33518 0.159604 0.19819 -0.015342 15.7936 28.4125 -25.3961
342 2 2.07108 13.6392 6.57335 0.109975 0.257603 -0.13237 16.666 12.2238 26.614
343 2 9.15288 12.6432 26.5736 0.695393 0.212318 -0.278486 20.2016 22.2219 19.1451
344 2 9.77157 13.5111 25.2833 0.186171 -0.36606 0.841548 14.9315 -14.1893 12.0038
345 2 8.03514 13.249 31.3625 -0.196577 -0.790727 1.46007 -18.2206 0.764278 -4.10269
346 2 9.12333 0.306792 30.9989 -1.07225 -0.933005 -0.259328 18.1249 9.65763 1.48768
347 2 1.0352 11.3904 26.0352 -0.524251 -1.78226 -0.25465 21.031 -17.7073 7.65762
348 2 0.494365 9.74296 25.7886 -0.457128 0.138761 -0.781081 -20.8835 -20.4946 -7.32842
349 2 3.59564 4.59784 23.3516 0.986671 -0.301336 0.633365 -25.8696 -1.71958 13.6157
350 2 3.87535 3.1723 23.0211 0.409188 -1.24144 -0.440263 -12.3173 21.3467 -10.8943
351 2 3.39819 12.4027 20.7869 -0.369702 0.0574887 -0.0522134 -20.8241 -12.675 9.27049
352 2 1.87558 12.1317 20.2423 0.961847 -0.117444 0.263459 1.21969 19.1257 -3.01041
353 2 8.72027 2.35034 26.2783 0.550173 0.0576724 -0.0601812 27.8595 0.211052 17.5335
354 2 9.38351 1.44374 27.4322 -0.446353 0.285446 0.259719 13.1584 7.88693 6.22657
355 2 7.08469 5.61985 7.33777 0.451381 1.03344 -0.394049 -15.9566 15.5928 -25.2693
356 2 7.53863 6.62213 8.39385 0.363555 0.565105 0.835086 -7.25149 2.78376 -21.3116
357 2 3.35767 3.36929 16.7942 -0.973274 1.49376 -1.02838 -9.21023 -7.60997 -22.3108
358 2 2.26343 4.03406 15.7703 0.185207 0.0216537 -0.253899 -28.1059 -17.093 21.1706