777
Lattice="15.904 0.0 0.0 0.0 14.057 0.0 0.0 0.0 37.029" Properties=species:S:1:pos:R:3:forces:R:3 energy=0.0 pbc="T T T"
He       8.51491000       4.70532000      21.03880000      -0.61769600       0.19690000       0.30876300
He       8.12236000       5.98029000      21.97200000      -0.79714500      -0.10059500      -0.23511200
He      14.57520000       1.72528000      21.26930000       0.06216730      -0.27431300      -0.48989500
He      13.53850000       2.76974000      21.46340000      -0.41756700       0.91425000       0.05057720
He      10.28740000      11.08930000       9.80704000       0.55981900      -1.37499000       0.04711970
He      10.99000000      12.55970000       9.48284000      -1.13023000      -1.25845000       0.18102800
He       2.05481000       2.20227000      10.18800000       0.34770800       1.95134000      -1.05375000
He       2.43614000       3.47349000      10.86340000       0.19356400       0.23471300      -0.94436100
He       4.13776000      10.57460000       8.56402000       0.75280300      -0.75800500      -0.92425100
He       3.66782000      11.93670000       9.13248000       0.20768500      -0.97490600      -0.04026060
He       4.14283000       6.07805000      19.72670000      -0.47637000       0.44579900       1.33369000
He       5.47109000       6.29240000      18.84450000      -1.54743000      -0.91085400       0.28584800
He      14.75650000      11.27970000      21.20590000      -1.63856000       1.57238000      -0.73454400
He       0.04563580      10.97370000      22.10110000      -0.48884100      -0.74753200      -0.61908500
He      12.14460000       4.59927000      22.26480000      -0.43438300       0.23145000       0.81656500
He      13.51940000       5.21308000      21.74420000       0.44509600      -0.03511770       0.27206900
He      11.94950000      10.75950000      26.44160000      -0.34931500      -1.10238000      -0.59277800
He      10.86840000      11.54010000      25.94770000      -1.01447000      -0.00505687      -0.83902700
He      11.46400000       0.92982300      12.97500000       0.43577500       0.14738200      -0.16378900
He      12.59640000       2.02750000      12.57800000      -0.34144400      -0.63314600      -0.13027100
He      13.73160000       8.99252000      14.30260000      -0.37476900       0.60786700      -0.06100080
He      14.86240000       9.66892000      13.40090000       0.22465500       0.11195000      -0.27065600
He       2.97958000       8.66459000      24.62650000      -0.42586800      -1.09962000      -0.20764500
He       2.80808000       9.08525000      23.01000000      -0.38395800      -1.65725000      -1.07671000
He      15.89850000       7.53723000      27.25640000      -1.44341000       1.01417000      -0.72024900
He       0.97575400       7.84961000      28.35390000      -0.16543200      -0.51380000       0.23621000
He       3.78070000       1.06577000      18.10030000       0.85550000      -0.28423800      -0.36405500
He       2.37040000       1.60280000      18.24620000      -0.64452000       0.68593000      -0.00041685
He      10.70340000       6.99793000      13.58560000       0.48099800      -0.51929700       1.04635000
He      10.93120000       5.65502000      14.51530000      -0.00909060       0.13990300      -0.16096700
He       7.76123000      11.95040000       6.04361000       0.51551200      -0.57586500      -0.28468800
He       9.39913000      11.35660000       5.92003000      -0.18586300      -0.04138220       0.55263800
He       3.27317000      11.90260000       6.10802000       0.53818400       0.53022700       0.00124242
He       4.93933000      12.12860000       6.24900000       0.00590511       0.06421460      -0.09142600
He      10.17940000       6.47725000      20.62180000      -1.09625000      -0.19264700       0.39296500
He       9.86047000       7.94784000      19.89470000       1.18127000      -1.98746000       0.68812300
He       5.60998000       8.75632000      16.43030000      -0.12722400      -0.46908600      -0.13601600
He       6.05294000       8.17127000      17.74470000      -0.39788800      -0.11102900      -0.01733020
He       1.94432000      11.09440000       9.17203000      -0.90464900      -0.51935800      -0.04798800
He       0.56183800      11.90080000       9.35378000      -0.24367300       0.26808100       0.11290500
He      15.45620000       0.01909790       9.15068000      -0.37220800      -0.13761800      -0.07172350
He      14.92030000      13.36360000      10.52080000      -0.55742800       0.27892300       0.33212100
He       0.48977800      13.26550000      13.30350000       0.09659880      -0.35448800       0.37200500
He       1.71832000       0.11850800      13.86970000      -0.05296860      -0.29060000       0.18774300
He      14.32570000       6.66152000       4.94829000       0.21513100      -0.64942200       1.21279000
He      14.24740000       7.31958000       6.36652000       0.14740100      -0.73109800      -0.37487800
He      13.79850000       6.43204000      10.83750000      -0.23738900      -0.16699800      -0.45239600
He      13.29820000       5.30501000      11.92430000       0.70744900       0.14542300      -0.25671500
He       5.96187000       6.13738000      27.37440000      -0.35941500      -0.11511400      -0.22869400
He       4.88497000       5.01655000      26.61420000       0.63034500       0.40763000       0.69571500
He       1.74764000       6.71024000       5.05149000       0.18370800       0.29670500      -0.25858500
He       1.49505000       5.93608000       6.34760000      -0.07287940       0.26887000       0.21356100
He       7.53190000      11.04200000      15.04040000       0.35880100      -0.66754200      -0.49058800
He       8.10235000      10.75110000      16.61000000      -0.90648300       1.42393000      -1.82522000
He       6.67008000       4.08897000      15.77990000       0.95365700      -0.35270300       0.86068800
He       7.91464000       4.29744000      16.87770000      -0.25406400      -0.45981300      -0.76681500
He       9.02434000       8.87060000      16.99720000      -0.14552600       1.63931000       0.83618200
He       9.99488000      10.02530000      17.23200000       0.94173000       0.14707300      -0.08947620
He       2.32197000       3.23764000      27.03210000      -1.00629000      -0.05628010       0.19143000
He       0.85571600       3.42115000      27.74540000      -0.49667100       1.29391000       0.76909800
He       0.19481800      11.02840000      27.76430000      -0.17202300      -0.42603200      -0.53223000
He       0.33111400      11.64400000      29.14760000       0.73683200       0.45932100       1.17661000
He       0.26229700       3.74338000       9.97466000       0.47586900      -0.33685400       0.27889300
He      15.77520000       4.15990000       8.59660000      -0.01548610       0.41863900      -0.91277100
He      12.89540000       3.57002000       5.97292000       0.46911300      -0.76049600      -1.61671000
He      12.28370000       2.19250000       5.72366000       0.41647600      -0.55751300      -0.13827200
He       6.00756000       6.67349000      15.30600000      -0.56727900      -1.05475000      -0.34432700
He       6.01278000       7.95888000      14.33760000       0.80888100      -1.20814000       1.43546000
He       8.39650000       2.38902000      10.11700000      -0.52386400       0.16217400       0.44320400
He       7.32651000       2.03803000       8.94371000       1.32457000       0.02054790       0.72226200
He      12.76350000       7.42325000       8.87648000      -0.51971000       0.23514200      -0.27952100
He      14.31620000       7.71327000       9.01747000       0.44353300       0.58041200      -0.11235800
He      15.43340000       9.57573000       5.80084000       0.31615200       1.34334000       0.01389360
He       1.06114000       9.76248000       6.19061000       0.22820800       0.95978800      -0.41798900
He       7.39955000       0.77181900      26.58400000       1.06493000       1.03733000       0.30352800
He       6.29288000       0.18582600      25.58750000       0.27277500       0.25902600       0.52261700
He       7.10489000       3.01065000      22.66340000      -0.14249100      -0.30839000      -0.40369500
He       6.47546000       3.80323000      23.84250000      -0.33923000       0.15153700      -0.06815010
He       5.49393000       6.64263000      22.10050000       0.52667800      -0.48861200       0.18072900
He       6.22801000       7.80603000      21.58080000       0.82575500      -0.31159900       0.36610500
He       6.10737000       4.18029000       5.47794000       0.37278900       0.10647500       0.00153139
He       7.08844000       3.04181000       5.83738000      -0.03827560       0.64094400       0.12738000
He       7.64033000      12.98320000      21.95600000      -0.62343200      -0.25460300       0.58823400
He       8.96285000      13.58010000      22.47520000       0.67532100       0.74789000       1.34270000
He       5.99134000       8.52119000       5.56273000      -0.38547600       0.27656200       0.32009100
He       5.04431000       7.23634000       5.67871000      -0.25362600      -0.52721600       0.33671400
He      10.71420000       8.31489000      28.17430000       0.08806220      -0.20000400      -0.61001200
He      10.51050000       9.08191000      26.75490000       0.12092200      -0.06493870       0.71596500
He       7.99096000       9.45181000      31.71670000       0.16841000      -0.36938600      -0.37584900
He       8.80224000       9.87770000      30.36830000      -0.93644700      -1.33829000       0.82955600
He      10.41410000       4.16926000       8.42485000       0.14959400       1.27238000       0.67167800
He      11.64270000       4.10785000       9.45071000      -1.77918000       2.29795000      -0.71047300
He      13.95080000       9.18189000      19.26880000       0.56870300      -0.54369100      -0.01028250
He      12.72200000       9.75449000      19.89100000      -0.23301600      -0.18731300       0.63472100
He       8.22245000       0.18159500       8.76174000      -0.78256800      -0.71557100       0.48936300
He       8.66275000      12.80630000       9.07300000      -0.46711000      -0.11335700       0.00694222
He       8.98046000       6.00320000      27.09940000       0.59664100      -0.90236000      -0.20214800
He       9.73814000       4.57153000      26.85640000      -0.05261910       0.37862200       0.21392200
He       8.22045000      11.17260000      12.89220000       0.15060800       0.75632500      -0.93205500
He       7.49293000       9.75670000      13.06120000       0.63080500       1.13341000       0.58789400
He      11.62360000       8.24983000      30.17460000      -0.00425884      -1.32617000      -0.62215800
He      11.33190000       9.36734000      31.16830000      -1.93692000       0.91692800       2.23722000
He       4.71585000       3.10894000      12.79660000       0.56067200       0.16409100      -0.22926900
He       5.79417000       2.06358000      13.04480000       0.36221400      -0.49023200       0.48849400
He       6.16688000       1.37865000       6.76404000       0.23184700       0.02687550       1.05983000
He       6.25292000       1.28375000       5.23365000       0.43181000      -0.26896600      -0.24126500
He      14.13860000       9.71584000       9.08046000       1.94319000      -0.86163700       0.20330300
He      12.87070000      10.16890000       9.60730000       0.19577000       0.24571900      -0.91065900
He       4.61019000       9.83531000      23.60970000       0.58226800       0.28439200       0.84072700
He       5.78290000       9.95438000      22.64590000       0.45339400      -0.05027350       0.28981300
He       6.79015000       8.06571000      11.83080000      -0.57564000       0.04045820       0.47227200
He       5.72393000       9.14612000      11.87250000      -1.22758000       1.86974000      -0.76609700
He       2.88056000       7.00469000       9.35516000      -0.22984500       0.29941500       0.28005100
He       4.22550000       7.77412000       8.93575000       0.30601800       0.56362500       0.08692550
He       8.86367000       6.01112000       6.17608000       0.39781000      -0.52479500      -0.41550500
He      10.36740000       5.75385000       5.60909000      -1.90970000      -0.94785700      -0.15384900
He       5.30443000       9.50745000      20.52690000      -0.60048600       0.01231680       0.00467439
He       6.88895000       9.51148000      20.42800000      -0.69979200       0.03238290       1.03513000
He       6.50094000      13.58250000       6.32901000       0.25688800       0.75688800      -0.45741900
He       6.90557000      12.80090000       7.58460000      -0.25786300      -0.01642430      -0.15664400
He      10.41220000       6.76202000      29.76400000       0.19088100      -0.03217690      -0.19081300
He      11.84200000       6.25676000      29.36290000       0.36298600       0.15942000      -0.23951900
He       1.15803000       5.08884000      14.03800000      -0.67446900      -0.49065000      -0.20611300
He       0.65597600       3.50632000      14.26670000      -0.19229000       0.36718300      -0.12318400
He       2.65111000       3.60240000      13.07270000      -1.63973000      -0.03709190       1.80247000
He       3.46034000       4.56010000      12.19570000       0.08425020      -1.18558000       0.17843200
He       6.54562000       3.06367000      20.44080000      -0.92574100       0.17972100      -0.36160700
He       7.77557000       2.07590000      20.49950000      -0.32207800       1.22452000       0.98305500
He       9.83190000       1.26000000      19.78560000      -0.50643100       0.54043600      -0.28434300
He       8.79342000       0.19123300      20.21320000      -0.32823100      -0.94430000       0.92695000
He       3.40721000       1.19686000       5.31845000       0.16438600       0.35056700       0.12686200
He       3.37705000       2.05534000       6.78679000      -0.18047800      -0.41447000      -1.19357000
He      12.88480000      13.94920000      11.78360000       1.23737000      -0.74664200      -0.02893830
He      13.74870000      13.13390000      12.73520000       0.47998600      -0.28575500       0.41008100
He      15.11720000       1.69672000      25.16420000      -0.92472200      -1.38785000      -0.13656100
He      13.92590000       0.60159400      24.83470000       0.38698000       0.35258900      -0.12222900
He       5.18268000       0.93525000       8.55076000       0.38832500      -0.13198000       0.01609020
He       5.11073000       2.39476000       8.00026000      -0.24270600       0.89799800       0.17197100
He       3.06342000      10.20380000      20.37200000       0.44882100      -0.67380300       0.38524900
He       2.94570000       8.77751000      19.68820000       0.36085400       0.28515700       0.04203150
He      14.48440000       1.41782000       7.99913000       0.62240100      -0.46231800      -0.43834600
He      14.77560000       0.16581200       7.09445000      -0.45010400      -1.19147000      -0.67070600
He       3.39572000      10.23370000      31.09330000       2.56581000       0.24042200      -0.36447400
He       2.09043000      10.99950000      31.12980000      -0.39295600       0.74779300      -0.03140520
He      15.84730000       8.30277000      19.05720000       0.09700500       0.11865100       0.45648400
He      15.57600000       9.11227000      20.46330000       0.04928640      -0.75536800      -0.19505000
He       8.39271000       3.14646000      24.41130000       0.02242640      -0.20729800      -0.25712500
He       9.82691000       3.73177000      24.29300000       0.50933600       0.10994700      -0.04625430
He      11.92290000      11.80460000      16.30130000       0.58566800       0.96801500      -0.63760900
He      13.20330000      12.66770000      15.66480000      -1.86510000      -0.26026500       0.03712990
He       3.13696000       6.70688000      11.79130000      -0.12936900      -0.20021500      -0.19097000
He       4.53525000       7.05678000      12.15880000       1.30253000       0.80425400       0.11063700
He       1.50489000       2.06727000       5.98198000       0.48045600      -0.07833080      -0.66362800
He       0.03674280       1.65754000       6.13076000      -0.71130000      -0.05564000       0.10137800
He      14.84220000       5.29988000      17.46660000       0.60840100       0.46910100      -1.01558000
He      14.11400000       5.16579000      18.70000000       0.08317830      -0.33097300       0.80296100
He       0.47929900       7.31460000      13.30340000       0.16690800       1.61545000       0.24718700
He      15.22490000       6.38105000      12.70100000      -0.24916100       0.06042150      -0.01595540
He       5.23447000      11.54570000      11.65280000      -0.86115900      -1.68371000       0.53225500
He       4.17755000      10.73230000      10.87700000      -0.38045800      -0.56947300      -0.42786400
He      12.04680000      10.02710000      17.71110000       0.55152500      -0.26909100       0.27721600
He      12.08170000       9.23255000      16.36460000       0.34443200       0.02689020      -0.18991300
He       4.90055000       4.30911000      19.26890000      -0.61391500      -0.58911100       0.30955500
He       4.28287000       2.81863000      18.91780000       0.81397400       0.77149100       0.94783300
He      15.15940000       9.45123000      30.59230000      -1.01093000       0.02530350       0.55800000
He      13.49950000       9.73935000      30.79610000       0.04081600      -1.05980000      -0.03923740
He       8.37833000       3.13608000      12.39180000       0.20024800      -0.16512700       0.07124480
He       6.96723000       3.50090000      12.02380000      -1.31645000      -0.10722800       0.29732700
He      15.17490000      12.09090000      15.49120000       0.97649000      -0.98328100       1.07908000
He      14.29750000      11.39610000      14.35620000       0.16099700      -0.88124300       0.24595400
He      15.72250000       1.23366000      14.13610000       0.45009200      -0.87211000       0.07019260
He      15.16040000       2.19861000      15.47430000       0.56918800      -0.93991500      -2.36992000
He      10.55200000       5.71496000      23.79560000       0.42854700       0.43770500       0.15516700
He      10.01130000       4.90942000      22.62660000      -0.89275200       0.21162500      -0.74019200
He      11.89640000       5.17461000      31.96700000       0.20833100      -0.71769400      -0.46230300
He      12.55190000       4.11415000      30.86250000       0.07645790      -1.23482000       0.28706400
He       7.62606000       9.98638000       6.14868000       0.51511200      -0.30387700       0.05329480
He       7.74940000       8.44707000       6.75289000      -0.21379400       0.79281700      -0.60657600
He       3.98470000       0.99517000      21.61040000       0.07188270       2.48467000      -0.32833700
He       4.20461000       2.64508000      21.04110000      -0.65800400      -1.72310000       0.95535900
He       8.68991000       9.47329000      19.00730000       0.74900300       1.20329000      -1.21170000
He       8.92842000       9.57432000      20.65640000       0.05017780      -0.13846200      -1.47709000
He       0.28290100       3.91141000       6.34591000       0.30818600       0.81770300       0.48005700
He      15.54750000       5.37291000       6.56531000       0.02949760      -0.23216100       0.08272230
He       1.97240000      11.59470000      22.35440000       0.10552500       0.63114900      -0.24734200
He       1.78503000      10.60570000      23.50980000      -0.40756500       0.90319700       0.49178700
He      10.39300000       1.13057000       5.14720000       0.38291000      -0.70536300      -0.17962700
He      10.12040000       1.62064000       6.51579000       1.13768000      -0.77310000      -0.03243540
He       2.74494000       7.03691000      17.91450000       0.53998400       1.52866000      -0.90273000
He       3.84879000       8.19549000      17.46110000       0.09567640      -0.12226200       0.08775980
He       4.94394000      13.79410000      19.98730000       0.16257500       0.07392730      -0.11780500
He       5.17136000      13.17470000      21.50870000      -0.26423300       0.15613800      -0.49786200
He      11.26570000      11.50880000       5.56249000       0.25133900      -0.32909500      -0.22727400
He      11.12440000      11.52090000       7.11635000      -0.17240700      -0.11619800      -0.57179900
He      12.95470000      11.47980000      11.28460000      -0.11635800       0.43498900      -0.15114000
He      13.16050000      10.27200000      12.09970000       0.33905200      -1.00456000       1.03429000
He       1.36022000       9.96910000      12.74210000      -1.40155000       0.04303300      -0.86188800
He       0.41983300      10.31630000      11.46880000       0.35778000       0.65764400      -1.29350000
He       3.63009000      11.90360000      16.60110000      -1.22115000      -0.83738800      -1.72441000
He       2.92478000      11.19950000      15.16000000       0.37936800       0.33347800       1.04394000
He      11.59900000      13.89860000       7.39941000      -0.24379000      -0.31374400      -0.03046610
He      12.84870000      12.98780000       7.49832000      -1.01418000      -0.31728600       0.50157400
He       0.21033100       9.55459000       9.24846000       0.89448700       0.64340600       0.02511370
He       0.37847300       8.00713000       9.71442000       0.15120400       0.39198100       0.05524530
He       0.66353100       3.28070000      25.39720000      -0.87384400       0.34583700      -0.22077400
He      15.41610000       4.24101000      24.66840000       0.71367000      -0.81467600       0.38042900
He      12.11980000       7.07964000      12.02470000      -0.49702900       0.22026000       0.11033800
He      10.57870000       7.00656000      11.63250000       0.29816900      -0.02772320       0.00225042
He       2.11757000       0.29575800      11.65340000      -0.29278800       0.18650600       0.31026500
He       1.28780000       0.19725900      10.36960000      -0.05086570      -0.18560800       0.15690300
He       2.14129000      13.08760000      30.04550000       0.57055100       0.60531000      -0.30943000
He       0.93411500      12.99930000      31.03600000       0.10890600       0.22349200       0.21325900
He      13.01420000       2.36087000      10.28050000       0.00057409      -0.29325000       0.20662300
He      14.14600000       3.15395000       9.51975000      -0.45973000      -0.16912700      -0.08453990
He      15.14020000       6.01373000      23.42420000       0.25870900       0.36151900       0.25212300
He      14.25070000       6.19637000      24.74040000       0.78692800      -0.26320100       0.30941900
He      12.82760000      10.48940000      29.10800000      -1.03970000      -0.39852400       1.84497000
He      14.14550000      11.18700000      28.46810000       0.11621000      -0.03564440       0.45123400
He      10.73500000       6.36667000       8.37173000       0.28513700       0.68337600       0.44951000
He      10.55690000       7.72560000       7.55772000       0.06117730      -0.25783900      -0.13789800
He       3.33842000       6.02786000       6.24603000       0.92773300      -0.09977840      -0.33876700
He       4.06649000       6.09000000       7.51471000       0.50373500       0.50921800       1.16683000
He      12.13070000       4.88837000       7.41950000      -0.36262800      -0.24579000       1.04081000
He      12.90560000       5.72996000       6.41872000       0.38845600      -0.52269500      -0.51102600
He       3.18780000       9.05360000      14.14270000      -0.12255800       0.55723700      -0.36988800
He       3.79611000      10.30540000      13.23570000      -1.11336000      -0.69088000       0.22574400
He       5.31415000       4.34179000      14.22700000       0.66079300       0.27117800       0.22910700
He       4.48022000       4.75596000      15.43710000       0.02214700      -0.07437380       0.65475200
He       3.15169000       6.14912000      30.26240000       0.94272100      -0.67288600       0.94310200
He       3.45826000       5.46711000      31.64290000      -0.04018050       0.18273300       0.42112800
He       2.92599000       7.33318000      15.63450000       0.26058000      -0.12566700       0.33601500
He       3.58864000       6.57140000      14.33830000      -1.22988000       1.72887000       0.84405200
He       0.01985260      12.70600000      19.78810000       0.43399200       0.52462200      -1.09075000
He       0.78813100      13.86960000      19.04950000       0.01034090       0.99060100       0.29457900
He       5.46710000       6.64112000      31.10160000      -0.38092700      -0.19663800      -0.19764300
He       6.52109000       7.75958000      30.80600000       0.05430770       1.04947000      -0.09877720
He       0.25678200       1.91136000      18.40260000      -0.77234200       0.43215500      -0.95712400
He       0.86853000       2.62750000      19.65270000      -0.00340566      -0.96325300      -0.36062300
He       4.00410000       4.24391000       7.07723000       0.16896900      -0.45812400       0.71426200
He       3.27801000       3.47625000       8.39187000       0.61945300       0.00125962      -0.45739500
He       7.44503000       7.62027000      19.04380000      -0.04577740      -0.60312400       0.16626300
He       7.53061000       6.26808000      18.24780000       0.42871900      -0.54646100       0.09539440
He       2.34937000       8.54289000       6.96700000       0.01052230      -2.83661000       0.61758100
He       3.06603000       9.51955000       6.02033000      -0.43565800      -0.16898100       0.44250100
He      13.07220000       5.57215000      27.42320000      -0.05979620       0.78994200      -1.37185000
He      12.27930000       4.59766000      28.28560000       0.40535800      -0.18076700       0.32067000
He       9.02870000       3.88888000       6.69352000      -0.40310500       1.53965000      -1.96583000
He       8.82511000       3.13535000       7.92717000       0.27988300      -0.95585700       0.82578400
He      13.38280000       2.04937000      30.06140000       0.90515000      -0.47354800      -1.52693000
He      13.04440000       1.92381000      31.46190000      -0.38284000       0.77607800       0.08247840
He       9.67089000       8.41049000       5.18932000      -0.02922850      -0.18624400      -0.19526400
He      10.42440000       9.25677000       6.26674000      -0.39163400      -0.16148400      -0.28220100
He      12.54190000      13.93420000      17.21030000       0.35273200       0.46997200       0.27927200
He      13.29830000       0.04953740      18.56280000       0.14960800      -0.53921600       0.10388100
He      11.81950000       1.39210000      18.65880000      -0.10495300       0.58815700      -0.08578960
He      11.99920000       2.19626000      19.96590000      -0.81699400       0.13022300      -1.17826000
He      14.33190000      11.81470000      30.90400000       0.34323300      -0.97267800       0.05455780
He      13.05840000      12.72500000      30.95450000       0.10228100       0.26486400       0.05250040
He       5.58368000      10.64770000      31.59360000      -0.45705700      -0.50251700      -0.44210500
He       5.05600000       9.97893000      30.20080000       0.71923700      -1.23955000      -0.98594600
He       8.61788000       9.21915000      24.17250000       0.87945000      -0.08056720       0.36002400
He       9.96164000      10.03550000      24.52910000       0.16097100       0.41881200       0.45521500
He       0.30266700       9.63149000      17.35930000       0.20910600       0.88839300      -0.55740300
He       1.39813000       8.46424000      17.42740000       0.52526900       0.34107200      -0.02724090
He      13.54960000       5.90224000      31.17440000      -0.24146800      -0.56564200      -0.15294200
He      15.11930000       6.43921000      31.29960000       0.52359200      -0.71435400      -0.68513400
He       7.90119000       3.87072000      30.35390000      -0.11015400      -0.01251470      -0.04031140
He       8.20770000       3.92044000      31.95720000      -0.44567200      -0.05579480      -0.44740400
He       8.46816000       4.84179000      11.17520000       0.80873900       0.33696600      -0.15438100
He       9.76008000       5.17841000      10.28500000       0.92197800      -0.57054600      -0.95383400
He      11.12110000       2.09109000      31.14160000      -0.77778200      -0.24200800      -0.13642100
He       9.49480000       2.50753000      31.16820000       0.34743800       0.10620400       0.02244080
He       0.48553400       5.22524000      29.79190000      -0.50458100      -0.11029700      -1.26877000
He       1.17386000       4.96646000      31.05840000       0.44807600      -0.32405400       0.97328700
He       7.26344000       7.67852000      24.68280000      -0.12294700       1.50312000       0.87413200
He       6.55194000       9.15279000      24.59600000      -1.05618000       0.51942400      -0.82604800
He      15.02190000      11.63510000       6.44039000      -0.18807800       0.28235300       0.05265930
He      14.37210000      12.45930000       5.28342000       0.13415500       0.27705500       1.59565000
He       1.26154000       1.39833000      27.65550000      -0.07321110       0.41714500       0.46227300
He       0.57374400       0.12673300      27.21060000       0.20370700       0.36458000       1.56711000
He       3.21945000       2.19897000      31.06630000       0.74450200       0.46223300      -0.21529100
He       1.68259000       2.03492000      31.25910000      -0.21860200       0.13297000      -0.45177200
He      15.46050000       0.64850600      29.29450000      -0.50822900       0.56994000       0.07454180
He      14.59710000       0.22665500      30.58600000       0.17046000       0.68730500      -0.72376400